 Entering Gaussian System, Link 0=g16
 Input=irc.gjf
 Output=irc.log
 Initial command:
 /home/zxli/Documents/Softwares/g16/l1.exe "/scratch/zxli/gaussian/Gau-15500.inp" -scrdir="/scratch/zxli/gaussian/"
 Entering Link 1 = /home/zxli/Documents/Softwares/g16/l1.exe PID=     15503.
  
 Copyright (c) 1988,1990,1992,1993,1995,1998,2003,2009,2016,
            Gaussian, Inc.  All Rights Reserved.
  
 This is part of the Gaussian(R) 16 program.  It is based on
 the Gaussian(R) 09 system (copyright 2009, Gaussian, Inc.),
 the Gaussian(R) 03 system (copyright 2003, Gaussian, Inc.),
 the Gaussian(R) 98 system (copyright 1998, Gaussian, Inc.),
 the Gaussian(R) 94 system (copyright 1995, Gaussian, Inc.),
 the Gaussian 92(TM) system (copyright 1992, Gaussian, Inc.),
 the Gaussian 90(TM) system (copyright 1990, Gaussian, Inc.),
 the Gaussian 88(TM) system (copyright 1988, Gaussian, Inc.),
 the Gaussian 86(TM) system (copyright 1986, Carnegie Mellon
 University), and the Gaussian 82(TM) system (copyright 1983,
 Carnegie Mellon University). Gaussian is a federally registered
 trademark of Gaussian, Inc.
  
 This software contains proprietary and confidential information,
 including trade secrets, belonging to Gaussian, Inc.
  
 This software is provided under written license and may be
 used, copied, transmitted, or stored only in accord with that
 written license.
  
 The following legend is applicable only to US Government
 contracts under FAR:
  
                    RESTRICTED RIGHTS LEGEND
  
 Use, reproduction and disclosure by the US Government is
 subject to restrictions as set forth in subparagraphs (a)
 and (c) of the Commercial Computer Software - Restricted
 Rights clause in FAR 52.227-19.
  
 Gaussian, Inc.
 340 Quinnipiac St., Bldg. 40, Wallingford CT 06492
  
  
 ---------------------------------------------------------------
 Warning -- This program may not be used in any manner that
 competes with the business of Gaussian, Inc. or will provide
 assistance to any competitor of Gaussian, Inc.  The licensee
 of this program is prohibited from giving any competitor of
 Gaussian, Inc. access to this program.  By using this program,
 the user acknowledges that Gaussian, Inc. is engaged in the
 business of creating and licensing software in the field of
 computational chemistry and represents and warrants to the
 licensee that it is not a competitor of Gaussian, Inc. and that
 it will not use this program in any manner prohibited above.
 ---------------------------------------------------------------
  

 Cite this work as:
 Gaussian 16, Revision A.03,
 M. J. Frisch, G. W. Trucks, H. B. Schlegel, G. E. Scuseria, 
 M. A. Robb, J. R. Cheeseman, G. Scalmani, V. Barone, 
 G. A. Petersson, H. Nakatsuji, X. Li, M. Caricato, A. V. Marenich, 
 J. Bloino, B. G. Janesko, R. Gomperts, B. Mennucci, H. P. Hratchian, 
 J. V. Ortiz, A. F. Izmaylov, J. L. Sonnenberg, D. Williams-Young, 
 F. Ding, F. Lipparini, F. Egidi, J. Goings, B. Peng, A. Petrone, 
 T. Henderson, D. Ranasinghe, V. G. Zakrzewski, J. Gao, N. Rega, 
 G. Zheng, W. Liang, M. Hada, M. Ehara, K. Toyota, R. Fukuda, 
 J. Hasegawa, M. Ishida, T. Nakajima, Y. Honda, O. Kitao, H. Nakai, 
 T. Vreven, K. Throssell, J. A. Montgomery, Jr., J. E. Peralta, 
 F. Ogliaro, M. J. Bearpark, J. J. Heyd, E. N. Brothers, K. N. Kudin, 
 V. N. Staroverov, T. A. Keith, R. Kobayashi, J. Normand, 
 K. Raghavachari, A. P. Rendell, J. C. Burant, S. S. Iyengar, 
 J. Tomasi, M. Cossi, J. M. Millam, M. Klene, C. Adamo, R. Cammi, 
 J. W. Ochterski, R. L. Martin, K. Morokuma, O. Farkas, 
 J. B. Foresman, and D. J. Fox, Gaussian, Inc., Wallingford CT, 2016.
 
 ******************************************
 Gaussian 16:  ES64L-G16RevA.03 25-Dec-2016
                 6-Jul-2019 
 ******************************************
 %chk=claisen.chk
 ----------------------------------------------------------------------
 #p irc=(calcfc,maxpoints=10) geom=allcheck external='python3 Gaudftb.p
 y'
 ----------------------------------------------------------------------
 1/6=10,10=4,18=10,26=1,29=7,38=1,42=10,44=3,172=1/1,23;
 2/12=2,29=1,40=1/2;
 3/11=9,14=-4,25=1,30=1,41=9900000,43=2,71=2,140=1/1;
 4/20=17,22=1002,24=3,113=1,114=1/2;
 6/7=2,8=2,9=2,10=2/1;
 7/25=1,44=-1/16;
 1/6=10,10=4,18=10,26=1,42=10,44=3/23(2);
 2/29=1/2;
 99/5=20/99;
 2/29=1/2;
 3/11=9,14=-2,25=1,30=1,41=9900000,43=2,71=2,140=1/1;
 4/16=2,20=17,22=1002,24=3,113=1,114=1/2;
 7/44=-1/16;
 1/6=10,18=10,26=1,42=10,44=3/23(-4);
 2/29=1/2;
 6/7=2,8=2,9=2,10=2/1;
 99/5=20/99;
 Leave Link    1 at Sat Jul  6 22:01:52 2019, MaxMem=           0 cpu:               0.0 elap:               0.0
 (Enter /home/zxli/Documents/Softwares/g16/l101.exe)
 Structure from the checkpoint file:  "claisen.chk"
 --
 ts
 --
 Charge =  0 Multiplicity = 1
 Redundant internal coordinates found in file.  (old form).
 C,0,1.3325441559,-0.2584333804,0.5416852521
 O,0,0.9460545804,-1.3194809279,-0.0878484659
 C,0,-0.7453829144,-1.0953208542,-0.9966827126
 C,0,-0.9003792953,0.302929488,-1.0193823528
 C,0,-1.1992068551,0.9901805145,0.1414249129
 C,0,0.5740195855,0.3677005946,1.5194134995
 H,0,2.2350668986,0.265554944,0.1458276678
 H,0,0.9572690867,1.2582701481,2.0060223407
 H,0,-0.1576894598,-0.2035403344,2.0785803103
 H,0,-0.4771811015,-1.6191284309,-1.9099874068
 H,0,-1.3187585618,-1.6765476354,-0.2773713011
 H,0,-0.4240444711,0.8512000461,-1.833646483
 H,0,-1.8377089866,0.5314044232,0.8905193581
 H,0,-1.1683386614,2.0756734046,0.1532803807
 Recover connectivity data from disk.
 ITRead=  0  0  0  0  0  0  0  0  0  0  0  0  0  0
 MicOpt= -1 -1 -1 -1 -1 -1 -1 -1 -1 -1 -1 -1 -1 -1
 NAtoms=     14 NQM=       14 NQMF=       0 NMMI=      0 NMMIF=      0
                NMic=       0 NMicF=      0.
                    Isotopes and Nuclear Properties:
 (Nuclear quadrupole moments (NQMom) in fm**2, nuclear magnetic moments (NMagM)
  in nuclear magnetons)

  Atom         1           2           3           4           5           6           7           8           9          10
 IAtWgt=          12          16          12          12          12          12           1           1           1           1
 AtmWgt=  12.0000000  15.9949146  12.0000000  12.0000000  12.0000000  12.0000000   1.0078250   1.0078250   1.0078250   1.0078250
 NucSpn=           0           0           0           0           0           0           1           1           1           1
 AtZEff=   3.6000000   5.6000000   3.6000000   3.6000000   3.6000000   3.6000000   1.0000000   1.0000000   1.0000000   1.0000000
 NQMom=    0.0000000   0.0000000   0.0000000   0.0000000   0.0000000   0.0000000   0.0000000   0.0000000   0.0000000   0.0000000
 NMagM=    0.0000000   0.0000000   0.0000000   0.0000000   0.0000000   0.0000000   2.7928460   2.7928460   2.7928460   2.7928460
 AtZNuc=   6.0000000   8.0000000   6.0000000   6.0000000   6.0000000   6.0000000   1.0000000   1.0000000   1.0000000   1.0000000

  Atom        11          12          13          14
 IAtWgt=           1           1           1           1
 AtmWgt=   1.0078250   1.0078250   1.0078250   1.0078250
 NucSpn=           1           1           1           1
 AtZEff=   1.0000000   1.0000000   1.0000000   1.0000000
 NQMom=    0.0000000   0.0000000   0.0000000   0.0000000
 NMagM=    2.7928460   2.7928460   2.7928460   2.7928460
 AtZNuc=   1.0000000   1.0000000   1.0000000   1.0000000
 Leave Link  101 at Sat Jul  6 22:01:52 2019, MaxMem=   536870912 cpu:               0.2 elap:               0.1
 (Enter /home/zxli/Documents/Softwares/g16/l123.exe)
 IRC-IRC-IRC-IRC-IRC-IRC-IRC-IRC-IRC-IRC-IRC-IRC-IRC-IRC-IRC-IRC-IRC-IRC
 ------------------------------------------------------------------------
 INPUT DATA FOR L123
 ------------------------------------------------------------------------
 GENERAL PARAMETERS:
 Follow reaction path in both directions.
 Maximum points per path      =  10
 Step size                    =   0.100 bohr
 Integration scheme           = HPC                                 
    Redo corrector integration= Yes                                 
    DWI Weight Power          =  2
    DWI will use Hessian update vectors when possible.
    Max correction cycles     =  10
 Initial Hessian              = CalcFC
 Hessian evaluation           = All updating
 Hessian updating method      = Bofill                              
 ------------------------------------------------------------------------
 IRC-IRC-IRC-IRC-IRC-IRC-IRC-IRC-IRC-IRC-IRC-IRC-IRC-IRC-IRC-IRC-IRC-IRC
 Leave Link  123 at Sat Jul  6 22:01:52 2019, MaxMem=   536870912 cpu:               0.0 elap:               0.0
 (Enter /home/zxli/Documents/Softwares/g16/l202.exe)
                          Input orientation:                          
 ---------------------------------------------------------------------
 Center     Atomic      Atomic             Coordinates (Angstroms)
 Number     Number       Type             X           Y           Z
 ---------------------------------------------------------------------
      1          6           0        1.332544   -0.258433    0.541685
      2          8           0        0.946055   -1.319481   -0.087848
      3          6           0       -0.745383   -1.095321   -0.996683
      4          6           0       -0.900379    0.302929   -1.019382
      5          6           0       -1.199207    0.990181    0.141425
      6          6           0        0.574020    0.367701    1.519413
      7          1           0        2.235067    0.265555    0.145828
      8          1           0        0.957269    1.258270    2.006022
      9          1           0       -0.157689   -0.203540    2.078580
     10          1           0       -0.477181   -1.619128   -1.909987
     11          1           0       -1.318759   -1.676548   -0.277371
     12          1           0       -0.424044    0.851200   -1.833646
     13          1           0       -1.837709    0.531404    0.890519
     14          1           0       -1.168339    2.075673    0.153280
 ---------------------------------------------------------------------
                    Distance matrix (angstroms):
                    1          2          3          4          5
     1  C    0.000000
     2  O    1.292868   0.000000
     3  C    2.717487   1.933181   0.000000
     4  C    2.781727   2.628553   1.406998   0.000000
     5  C    2.851142   3.160577   2.418793   1.381697   0.000000
     6  C    1.386851   2.359721   3.195621   2.936585   2.330379
     7  H    1.116161   2.056331   3.469927   3.345166   3.509891
     8  H    2.141379   3.321027   4.177877   3.676494   2.863387
     9  H    2.141461   2.675255   3.255441   3.225751   2.502459
    10  H    3.337259   2.331433   1.086477   2.160227   3.396779
    11  H    3.116297   2.300607   1.088114   2.154983   2.702059
    12  H    3.155803   3.104326   2.143061   1.091110   2.126288
    13  H    3.285732   3.483148   2.720467   2.139746   1.085957
    14  H    3.442866   4.006978   3.399487   2.142326   1.085996
                    6          7          8          9         10
     6  C    0.000000
     7  H    2.157835   0.000000
     8  H    1.084796   2.465477   0.000000
     9  H    1.083689   3.111409   1.839915   0.000000
    10  H    4.100403   3.890334   5.066774   4.244365   0.000000
    11  H    3.315116   4.071920   4.359741   3.011368   1.837657
    12  H    3.531701   3.366329   4.100828   4.060658   2.472079
    13  H    2.497747   4.148825   3.095898   2.184971   3.784001
    14  H    2.796302   3.854835   2.935815   3.150080   4.287929
                   11         12         13         14
    11  H    0.000000
    12  H    3.100325   0.000000
    13  H    2.551143   3.085741   0.000000
    14  H    3.779848   2.449732   1.837483   0.000000
 Symmetry turned off by external request.
 Stoichiometry    C5H8O
 Framework group  C1[X(C5H8O)]
 Deg. of freedom    36
 Full point group                 C1      NOp   1
 Rotational constants (GHZ):           4.7392467           3.7568398           2.4082995
 Leave Link  202 at Sat Jul  6 22:01:52 2019, MaxMem=   536870912 cpu:               0.0 elap:               0.0
 (Enter /home/zxli/Documents/Softwares/g16/l301.exe)
 Standard basis: STO-3G (5D, 7F)
 Ernie: Thresh=  0.10000D-02 Tol=  0.10000D-05 Strict=F.
    38 basis functions,   114 primitive gaussians,    38 cartesian basis functions
    23 alpha electrons       23 beta electrons
       nuclear repulsion energy       227.8899677607 Hartrees.
 IExCor=    0 DFT=F Ex=HF Corr=None ExCW=0 ScaHFX=  1.000000
 ScaDFX=  1.000000  1.000000  1.000000  1.000000 ScalE2=  1.000000  1.000000
 IRadAn=      5 IRanWt=     -1 IRanGd=            0 ICorTp=0 IEmpDi=  4
 NAtoms=   14 NActive=   14 NUniq=   14 SFac= 1.00D+00 NAtFMM=   60 NAOKFM=F Big=F
 Integral buffers will be    131072 words long.
 Raffenetti 1 integral format.
 Two-electron integral symmetry is turned off.
 Leave Link  301 at Sat Jul  6 22:01:52 2019, MaxMem=   536870912 cpu:               0.0 elap:               0.0
 (Enter /home/zxli/Documents/Softwares/g16/l402.exe)
 External calculation of energy, first and second derivatives.
 Running external command "python3 Gaudftb.py R"
         input file       "/scratch/zxli/gaussian/Gau-15503.EIn"
         output file      "/scratch/zxli/gaussian/Gau-15503.EOu"
         message file     "/scratch/zxli/gaussian/Gau-15503.EMs"
         fchk file        "/scratch/zxli/gaussian/Gau-15503.EFC"
         mat. el file     "/scratch/zxli/gaussian/Gau-15503.EUF"
 Recovered energy= -14.7748704609     dipole=      0.000000000000      0.000000000000      0.000000000000
 NRF= 0 NRA=   0 NVA=   0 HaveQM=F NVQ=       0
 Convergence limit is  0.750E-04 MaxStp= 10000 StMxLn= 3.00D-04 StpMin= 1.00D-06.
 Convergence criteria             0.00011250 0.00007500 0.00045000 0.00030000
  Step  NS  ND Rises OKQ   Scale  Max. Force  RMS Force Max. Disp.  RMS Disp.     Energy   Flag
     1   0   0   F    T  1.00D+00 0.00000000 0.00000000 0.00000000 0.00000000  -14.7748705 ====
 Running external command "python3 Gaudftb.py R"
         input file       "/scratch/zxli/gaussian/Gau-15503.EIn"
         output file      "/scratch/zxli/gaussian/Gau-15503.EOu"
         message file     "/scratch/zxli/gaussian/Gau-15503.EMs"
         fchk file        "/scratch/zxli/gaussian/Gau-15503.EFC"
         mat. el file     "/scratch/zxli/gaussian/Gau-15503.EUF"
 Recovered energy= -14.7748704611     dipole=      0.000000000000      0.000000000000      0.000000000000
 Energy=    -14.7748705     NIter=   0.
 Dipole moment=       0.000000       0.000000       0.000000
 Leave Link  402 at Sat Jul  6 22:01:53 2019, MaxMem=   536870912 cpu:               0.0 elap:               0.9
 (Enter /home/zxli/Documents/Softwares/g16/l601.exe)
 Leave Link  601 at Sat Jul  6 22:01:53 2019, MaxMem=   536870912 cpu:               0.0 elap:               0.0
 (Enter /home/zxli/Documents/Softwares/g16/l716.exe)
 Dipole        = 0.00000000D+00 0.00000000D+00 0.00000000D+00
 -------------------------------------------------------------------
 Center     Atomic                   Forces (Hartrees/Bohr)
 Number     Number              X              Y              Z
 -------------------------------------------------------------------
      1        6          -0.000000396    0.000000256   -0.000011577
      2        8          -0.000002188   -0.000007668    0.000000364
      3        6          -0.000022769    0.000039055   -0.000001648
      4        6          -0.000011174   -0.000022251   -0.000017714
      5        6           0.000008912   -0.000008704    0.000003102
      6        6          -0.000009088    0.000006545    0.000007528
      7        1           0.000004471    0.000003917   -0.000001716
      8        1          -0.000000095    0.000000570    0.000000915
      9        1           0.000004975   -0.000004602    0.000003867
     10        1           0.000021153   -0.000005212    0.000014245
     11        1          -0.000003116   -0.000002098   -0.000005226
     12        1           0.000003353   -0.000000081    0.000002786
     13        1           0.000001720   -0.000000641    0.000004929
     14        1           0.000004242    0.000000914    0.000000144
 -------------------------------------------------------------------
 Cartesian Forces:  Max     0.000039055 RMS     0.000010247
 Leave Link  716 at Sat Jul  6 22:01:53 2019, MaxMem=   536870912 cpu:               0.0 elap:               0.0
 (Enter /home/zxli/Documents/Softwares/g16/l123.exe)
 IRC-IRC-IRC-IRC-IRC-IRC-IRC-IRC-IRC-IRC-IRC-IRC-IRC-IRC-IRC-IRC-IRC-IRC
          ******** Start new reaction path calculation ********
 Current Structure is TS -> form Hessian eigenvectors.
                            Diagonalizing Hessian.
 Supplied step size of   0.1000 bohr.
    Integration on MW PES will use step size of   0.2771 sqrt(amu)*bohr.
 Point Number:   0          Path Number:   1
 Calculating another point on the path.
 Point Number  1 in FORWARD path direction.
 Using LQA Reaction Path Following.
 IRC-IRC-IRC-IRC-IRC-IRC-IRC-IRC-IRC-IRC-IRC-IRC-IRC-IRC-IRC-IRC-IRC-IRC
 Leave Link  123 at Sat Jul  6 22:01:53 2019, MaxMem=   536870912 cpu:               0.0 elap:               0.0
 (Enter /home/zxli/Documents/Softwares/g16/l202.exe)
                          Input orientation:                          
 ---------------------------------------------------------------------
 Center     Atomic      Atomic             Coordinates (Angstroms)
 Number     Number       Type             X           Y           Z
 ---------------------------------------------------------------------
      1          6           0        1.314942   -0.071673    0.514419
      2          8           0        0.939657   -1.131135   -0.103124
      3          6           0       -0.783175   -0.901750   -1.033668
      4          6           0       -0.921196    0.489452   -1.045689
      5          6           0       -1.203858    1.175127    0.129615
      6          6           0        0.538685    0.563785    1.484327
      7          1           0        2.215023    0.462669    0.120672
      8          1           0        0.922192    1.455103    1.970597
      9          1           0       -0.169806   -0.020543    2.061446
     10          1           0       -0.503043   -1.427202   -1.941722
     11          1           0       -1.336386   -1.485811   -0.301578
     12          1           0       -0.444098    1.040328   -1.857794
     13          1           0       -1.867417    0.723954    0.862730
     14          1           0       -1.172538    2.261071    0.138825
 ---------------------------------------------------------------------
                    Distance matrix (angstroms):
                    1          2          3          4          5
     1  C    0.000000
     2  O    1.282442   0.000000
     3  C    2.736366   1.971466   0.000000
     4  C    2.783723   2.641496   1.398084   0.000000
     5  C    2.836713   3.157162   2.417358   1.389744   0.000000
     6  C    1.395387   2.356594   3.199282   2.921944   2.290293
     7  H    1.118349   2.053498   3.490463   3.346190   3.492338
     8  H    2.146102   3.315004   4.181943   3.664498   2.826251
     9  H    2.144851   2.673890   3.276046   3.237124   2.496169
    10  H    3.342927   2.355734   1.085880   2.156685   3.399073
    11  H    3.113708   2.312045   1.087716   2.151221   2.698904
    12  H    3.155656   3.115910   2.136779   1.091146   2.131947
    13  H    3.298750   3.500556   2.723016   2.142986   1.086888
    14  H    3.430791   4.003369   3.395553   2.145898   1.086434
                    6          7          8          9         10
     6  C    0.000000
     7  H    2.163305   0.000000
     8  H    1.085350   2.465474   0.000000
     9  H    1.084650   3.112476   1.838001   0.000000
    10  H    4.097199   3.900381   5.064111   4.256183   0.000000
    11  H    3.302453   4.072761   4.348901   3.015261   1.840644
    12  H    3.516067   3.364364   4.085996   4.069536   2.469661
    13  H    2.490254   4.157552   3.089315   2.207505   3.788659
    14  H    2.760334   3.835382   2.897045   3.147651   4.287220
                   11         12         13         14
    11  H    0.000000
    12  H    3.098284   0.000000
    13  H    2.553560   3.086613   0.000000
    14  H    3.776232   2.450984   1.835654   0.000000
 Symmetry turned off by external request.
 Stoichiometry    C5H8O
 Framework group  C1[X(C5H8O)]
 Deg. of freedom    36
 Full point group                 C1      NOp   1
 Rotational constants (GHZ):           4.7367754           3.7582465           2.4085269
 Leave Link  202 at Sat Jul  6 22:01:53 2019, MaxMem=   536870912 cpu:               0.0 elap:               0.0
 (Enter /home/zxli/Documents/Softwares/g16/l301.exe)
 Standard basis: STO-3G (5D, 7F)
 Ernie: Thresh=  0.10000D-02 Tol=  0.10000D-05 Strict=F.
    38 basis functions,   114 primitive gaussians,    38 cartesian basis functions
    23 alpha electrons       23 beta electrons
       nuclear repulsion energy       227.8313704111 Hartrees.
 IExCor=    0 DFT=F Ex=HF Corr=None ExCW=0 ScaHFX=  1.000000
 ScaDFX=  1.000000  1.000000  1.000000  1.000000 ScalE2=  1.000000  1.000000
 IRadAn=      5 IRanWt=     -1 IRanGd=            0 ICorTp=0 IEmpDi=  4
 NAtoms=   14 NActive=   14 NUniq=   14 SFac= 1.00D+00 NAtFMM=   60 NAOKFM=F Big=F
 Integral buffers will be    131072 words long.
 Raffenetti 1 integral format.
 Two-electron integral symmetry is turned off.
 Leave Link  301 at Sat Jul  6 22:01:53 2019, MaxMem=   536870912 cpu:               0.0 elap:               0.0
 (Enter /home/zxli/Documents/Softwares/g16/l402.exe)
 External calculation of energy and first derivatives.
 Running external command "python3 Gaudftb.py R"
         input file       "/scratch/zxli/gaussian/Gau-15503.EIn"
         output file      "/scratch/zxli/gaussian/Gau-15503.EOu"
         message file     "/scratch/zxli/gaussian/Gau-15503.EMs"
         fchk file        "/scratch/zxli/gaussian/Gau-15503.EFC"
         mat. el file     "/scratch/zxli/gaussian/Gau-15503.EUF"
 Recovered energy= -14.7752124632     dipole=      0.000000000000      0.000000000000      0.000000000000
 NRF= 0 NRA=   0 NVA=   0 HaveQM=F NVQ=       0
 Convergence limit is  0.750E-04 MaxStp= 10000 StMxLn= 3.00D-04 StpMin= 1.00D-06.
 Convergence criteria             0.00011250 0.00007500 0.00045000 0.00030000
  Step  NS  ND Rises OKQ   Scale  Max. Force  RMS Force Max. Disp.  RMS Disp.     Energy   Flag
     1   0   0   F    T  1.00D+00 0.00000000 0.00000000 0.00000000 0.00000000  -14.7752125 ====
 Running external command "python3 Gaudftb.py R"
         input file       "/scratch/zxli/gaussian/Gau-15503.EIn"
         output file      "/scratch/zxli/gaussian/Gau-15503.EOu"
         message file     "/scratch/zxli/gaussian/Gau-15503.EMs"
         fchk file        "/scratch/zxli/gaussian/Gau-15503.EFC"
         mat. el file     "/scratch/zxli/gaussian/Gau-15503.EUF"
 Recovered energy= -14.7752124632     dipole=      0.000000000000      0.000000000000      0.000000000000
 Energy=    -14.7752125     NIter=   0.
 Dipole moment=       0.000000       0.000000       0.000000
 Leave Link  402 at Sat Jul  6 22:01:54 2019, MaxMem=   536870912 cpu:               0.0 elap:               0.3
 (Enter /home/zxli/Documents/Softwares/g16/l716.exe)
 Dipole        = 0.00000000D+00 0.00000000D+00 0.00000000D+00
 -------------------------------------------------------------------
 Center     Atomic                   Forces (Hartrees/Bohr)
 Number     Number              X              Y              Z
 -------------------------------------------------------------------
      1        6           0.000530791   -0.000430982   -0.000616875
      2        8           0.003376239   -0.000395575    0.002415225
      3        6          -0.003489561    0.000704418   -0.002216174
      4        6          -0.000016691   -0.000637925   -0.000345440
      5        6           0.003022073   -0.001048376    0.003092386
      6        6          -0.003676040    0.001276687   -0.001969238
      7        1           0.000036090    0.000078911    0.000034975
      8        1          -0.000233667    0.000114912   -0.000159554
      9        1           0.000337429    0.000051470    0.000027651
     10        1          -0.000140498    0.000057037   -0.000099430
     11        1           0.000119147    0.000086073   -0.000086295
     12        1          -0.000046830    0.000000339   -0.000013188
     13        1          -0.000036696    0.000195922   -0.000210256
     14        1           0.000218214   -0.000052912    0.000146213
 -------------------------------------------------------------------
 Cartesian Forces:  Max     0.003676040 RMS     0.001341670
 Leave Link  716 at Sat Jul  6 22:01:54 2019, MaxMem=   536870912 cpu:               0.0 elap:               0.0
 (Enter /home/zxli/Documents/Softwares/g16/l123.exe)
 IRC-IRC-IRC-IRC-IRC-IRC-IRC-IRC-IRC-IRC-IRC-IRC-IRC-IRC-IRC-IRC-IRC-IRC
 Pt  1 Step number   1 out of a maximum of  10
 Using modified Bulirsch-Stoer corrector integration.
   Using distance weighted interpolants to fit PES.
 PreDWI: IReCr0= 2 IReCr1= 1 IReCr2= 1 IReCr3= 1
 Modified Bulirsch-Stoer Extrapolation Cycles:
    EPS =    0.000010000000000
    Cycle     1 NS=    48
      PEZero:  N= 2 I= 1 D=  7.22D-04 Err=  8.76D-04
    Cycle     2 NS=    64 Truncation Error =  0.000875630
      PEZero:  N= 3 I= 2 D=  7.22D-04 Err=  5.84D-04
      PEZero:  N= 3 I= 1 D=  1.44D-03 Err=  5.34D-07
    Cycle     3 NS=    96 Truncation Error =  0.000000534
 BS completed in    3 cycles and     208 integration steps.
 Maximum DWI energy   std dev =  0.000000759 at pt    50
 Maximum DWI gradient std dev =  0.099827789 at pt     2
 SUMMARY OF CORRECTOR INTEGRATION:
   Predictor End Point Energy =   -14.775212
   Old End Point Energy       =   -14.775212
   Corrected End Point Energy =   -14.775213
   Predictor End-Start Dist.  =     0.277080
   Old End-Start Dist.        =     0.277080
   New End-Start Dist.        =     0.276992
   New End-Old End Dist.      =     0.006531
 CORRECTOR INTEGRATION CONVERGENCE:
   Recorrection delta-x convergence threshold:    0.010000
   Delta-x Convergence Met
 Point Number:   1          Path Number:   1
                    CURRENT STRUCTURE
                Cartesian Coordinates (Ang):                
 ---------------------------------------------------------------------
 Center     Atomic                     Coordinates (Angstroms)
 Number     Number                        X           Y           Z
 ---------------------------------------------------------------------
      1          6                    1.314898   -0.071644    0.514316
      2          8                    0.939410   -1.131128   -0.103339
      3          6                   -0.782807   -0.901799   -1.033428
      4          6                   -0.921017    0.489417   -1.045620
      5          6                   -1.203634    1.175059    0.129908
      6          6                    0.538249    0.563915    1.484102
      7          1                    2.215602    0.461987    0.121194
      8          1                    0.922362    1.454834    1.970709
      9          1                   -0.169416   -0.020284    2.061562
     10          1                   -0.503261   -1.427194   -1.941652
     11          1                   -1.336059   -1.485776   -0.301635
     12          1                   -0.444584    1.040386   -1.858038
     13          1                   -1.867315    0.724412    0.862657
     14          1                   -1.173039    2.261068    0.138507
 ---------------------------------------------------------------------
   CHANGE IN THE REACTION COORDINATE =    0.27699
   NET REACTION COORDINATE UP TO THIS POINT =    0.27699
  # OF POINTS ALONG THE PATH =   1
  # OF STEPS =   1

 Calculating another point on the path.
 Point Number  2 in FORWARD path direction.
 Using LQA Reaction Path Following.
   LQA: T_Est iteration completed in    3 iterations.
 IRC-IRC-IRC-IRC-IRC-IRC-IRC-IRC-IRC-IRC-IRC-IRC-IRC-IRC-IRC-IRC-IRC-IRC
 Leave Link  123 at Sat Jul  6 22:01:54 2019, MaxMem=   536870912 cpu:               0.0 elap:               0.0
 (Enter /home/zxli/Documents/Softwares/g16/l202.exe)
                          Input orientation:                          
 ---------------------------------------------------------------------
 Center     Atomic      Atomic             Coordinates (Angstroms)
 Number     Number       Type             X           Y           Z
 ---------------------------------------------------------------------
      1          6           0        1.316940   -0.074399    0.511895
      2          8           0        0.952365   -1.132184   -0.094148
      3          6           0       -0.800073   -0.897806   -1.045005
      4          6           0       -0.921762    0.486425   -1.046765
      5          6           0       -1.188051    1.170455    0.143519
      6          6           0        0.521909    0.570809    1.473394
      7          1           0        2.216190    0.468491    0.121902
      8          1           0        0.907123    1.461870    1.960192
      9          1           0       -0.161660   -0.026321    2.069241
     10          1           0       -0.509942   -1.424698   -1.948447
     11          1           0       -1.333255   -1.484486   -0.300715
     12          1           0       -0.445542    1.040112   -1.857505
     13          1           0       -1.877143    0.728021    0.859781
     14          1           0       -1.158086    2.256994    0.148668
 ---------------------------------------------------------------------
                    Distance matrix (angstroms):
                    1          2          3          4          5
     1  C    0.000000
     2  O    1.272443   0.000000
     3  C    2.753848   2.007511   0.000000
     4  C    2.784911   2.653249   1.389572   0.000000
     5  C    2.821408   3.152779   2.416780   1.398422   0.000000
     6  C    1.404582   2.354287   3.201063   2.905600   2.247689
     7  H    1.120479   2.050875   3.510880   3.348558   3.475928
     8  H    2.150730   3.309302   4.184949   3.652136   2.788364
     9  H    2.147999   2.672871   3.296299   3.248101   2.488807
    10  H    3.348744   2.379565   1.085356   2.152909   3.401613
    11  H    3.110018   2.321820   1.087403   2.147186   2.695763
    12  H    3.156348   3.127690   2.131050   1.091170   2.138318
    13  H    3.311656   3.518019   2.726097   2.146168   1.087946
    14  H    3.419515   3.999937   3.392019   2.149377   1.086964
                    6          7          8          9         10
     6  C    0.000000
     7  H    2.169698   0.000000
     8  H    1.085980   2.465719   0.000000
     9  H    1.085755   3.113060   1.835457   0.000000
    10  H    4.093380   3.911815   5.061403   4.268322   0.000000
    11  H    3.288363   4.073240   4.337281   3.019200   1.842943
    12  H    3.500157   3.365950   4.072148   4.078873   2.467327
    13  H    2.481267   4.167396   3.082462   2.230405   3.793359
    14  H    2.724061   3.819057   2.859883   3.145632   4.286355
                   11         12         13         14
    11  H    0.000000
    12  H    3.096001   0.000000
    13  H    2.556902   3.087154   0.000000
    14  H    3.772440   2.452193   1.833162   0.000000
 Symmetry turned off by external request.
 Stoichiometry    C5H8O
 Framework group  C1[X(C5H8O)]
 Deg. of freedom    36
 Full point group                 C1      NOp   1
 Rotational constants (GHZ):           4.7340767           3.7626628           2.4096851
 Leave Link  202 at Sat Jul  6 22:01:54 2019, MaxMem=   536870912 cpu:               0.0 elap:               0.0
 (Enter /home/zxli/Documents/Softwares/g16/l301.exe)
 Standard basis: STO-3G (5D, 7F)
 Ernie: Thresh=  0.10000D-02 Tol=  0.10000D-05 Strict=F.
    38 basis functions,   114 primitive gaussians,    38 cartesian basis functions
    23 alpha electrons       23 beta electrons
       nuclear repulsion energy       227.8128539462 Hartrees.
 IExCor=    0 DFT=F Ex=HF Corr=None ExCW=0 ScaHFX=  1.000000
 ScaDFX=  1.000000  1.000000  1.000000  1.000000 ScalE2=  1.000000  1.000000
 IRadAn=      5 IRanWt=     -1 IRanGd=            0 ICorTp=0 IEmpDi=  4
 NAtoms=   14 NActive=   14 NUniq=   14 SFac= 1.00D+00 NAtFMM=   60 NAOKFM=F Big=F
 Integral buffers will be    131072 words long.
 Raffenetti 1 integral format.
 Two-electron integral symmetry is turned off.
 Leave Link  301 at Sat Jul  6 22:01:54 2019, MaxMem=   536870912 cpu:               0.0 elap:               0.0
 (Enter /home/zxli/Documents/Softwares/g16/l402.exe)
 External calculation of energy and first derivatives.
 Running external command "python3 Gaudftb.py R"
         input file       "/scratch/zxli/gaussian/Gau-15503.EIn"
         output file      "/scratch/zxli/gaussian/Gau-15503.EOu"
         message file     "/scratch/zxli/gaussian/Gau-15503.EMs"
         fchk file        "/scratch/zxli/gaussian/Gau-15503.EFC"
         mat. el file     "/scratch/zxli/gaussian/Gau-15503.EUF"
 Recovered energy= -14.7762489060     dipole=      0.000000000000      0.000000000000      0.000000000000
 NRF= 0 NRA=   0 NVA=   0 HaveQM=F NVQ=       0
 Convergence limit is  0.750E-04 MaxStp= 10000 StMxLn= 3.00D-04 StpMin= 1.00D-06.
 Convergence criteria             0.00011250 0.00007500 0.00045000 0.00030000
  Step  NS  ND Rises OKQ   Scale  Max. Force  RMS Force Max. Disp.  RMS Disp.     Energy   Flag
     1   0   0   F    T  1.00D+00 0.00000000 0.00000000 0.00000000 0.00000000  -14.7762489 ====
 Running external command "python3 Gaudftb.py R"
         input file       "/scratch/zxli/gaussian/Gau-15503.EIn"
         output file      "/scratch/zxli/gaussian/Gau-15503.EOu"
         message file     "/scratch/zxli/gaussian/Gau-15503.EMs"
         fchk file        "/scratch/zxli/gaussian/Gau-15503.EFC"
         mat. el file     "/scratch/zxli/gaussian/Gau-15503.EUF"
 Recovered energy= -14.7762489060     dipole=      0.000000000000      0.000000000000      0.000000000000
 Energy=    -14.7762489     NIter=   0.
 Dipole moment=       0.000000       0.000000       0.000000
 Leave Link  402 at Sat Jul  6 22:01:54 2019, MaxMem=   536870912 cpu:               0.0 elap:               0.3
 (Enter /home/zxli/Documents/Softwares/g16/l716.exe)
 Dipole        = 0.00000000D+00 0.00000000D+00 0.00000000D+00
 -------------------------------------------------------------------
 Center     Atomic                   Forces (Hartrees/Bohr)
 Number     Number              X              Y              Z
 -------------------------------------------------------------------
      1        6           0.000983767   -0.000787679   -0.001160765
      2        8           0.006633052   -0.000836522    0.004601909
      3        6          -0.006724958    0.001242756   -0.004260180
      4        6           0.000084345   -0.001162308   -0.000545479
      5        6           0.006254481   -0.002163665    0.006453201
      6        6          -0.007719142    0.002615750   -0.004245015
      7        1           0.000104008    0.000111794    0.000110343
      8        1          -0.000468431    0.000223098   -0.000328961
      9        1           0.000684845    0.000166152   -0.000004133
     10        1          -0.000344035    0.000114200   -0.000247140
     11        1           0.000249721    0.000172289   -0.000161716
     12        1          -0.000123854    0.000007359   -0.000037502
     13        1          -0.000033656    0.000413592   -0.000448787
     14        1           0.000419860   -0.000116815    0.000274223
 -------------------------------------------------------------------
 Cartesian Forces:  Max     0.007719142 RMS     0.002704280
 Leave Link  716 at Sat Jul  6 22:01:54 2019, MaxMem=   536870912 cpu:               0.0 elap:               0.0
 (Enter /home/zxli/Documents/Softwares/g16/l123.exe)
 IRC-IRC-IRC-IRC-IRC-IRC-IRC-IRC-IRC-IRC-IRC-IRC-IRC-IRC-IRC-IRC-IRC-IRC
 Pt  2 Step number   1 out of a maximum of  10
 Using modified Bulirsch-Stoer corrector integration.
   Using distance weighted interpolants to fit PES.
 PreDWI: IReCr0= 2 IReCr1= 1 IReCr2= 1 IReCr3= 1
 Modified Bulirsch-Stoer Extrapolation Cycles:
    EPS =    0.000010000000000
    Cycle     1 NS=    48
      PEZero:  N= 2 I= 1 D=  1.44D-03 Err=  3.90D-05
    Cycle     2 NS=    64 Truncation Error =  0.000039010
      PEZero:  N= 3 I= 2 D=  1.44D-03 Err=  2.60D-05
      PEZero:  N= 3 I= 1 D=  2.89D-03 Err=  7.03D-08
    Cycle     3 NS=    96 Truncation Error =  0.000000070
 BS completed in    3 cycles and     208 integration steps.
 Maximum DWI energy   std dev =  0.000002383 at pt    63
 Maximum DWI gradient std dev =  0.073186686 at pt    55
 SUMMARY OF CORRECTOR INTEGRATION:
   Predictor End Point Energy =   -14.776249
   Old End Point Energy       =   -14.776249
   Corrected End Point Energy =   -14.776252
   Predictor End-Start Dist.  =     0.276983
   Old End-Start Dist.        =     0.276983
   New End-Start Dist.        =     0.276913
   New End-Old End Dist.      =     0.008074
 CORRECTOR INTEGRATION CONVERGENCE:
   Recorrection delta-x convergence threshold:    0.010000
   Delta-x Convergence Met
 Point Number:   2          Path Number:   1
                    CURRENT STRUCTURE
                Cartesian Coordinates (Ang):                
 ---------------------------------------------------------------------
 Center     Atomic                     Coordinates (Angstroms)
 Number     Number                        X           Y           Z
 ---------------------------------------------------------------------
      1          6                    1.316924   -0.074270    0.511806
      2          8                    0.952102   -1.132243   -0.094405
      3          6                   -0.799654   -0.897944   -1.044728
      4          6                   -0.921509    0.486447   -1.046682
      5          6                   -1.187864    1.170381    0.143877
      6          6                    0.521412    0.570910    1.473179
      7          1                    2.216987    0.467629    0.122656
      8          1                    0.907289    1.461604    1.960250
      9          1                   -0.161141   -0.025618    2.069087
     10          1                   -0.510819   -1.424594   -1.948672
     11          1                   -1.332864   -1.484396   -0.300920
     12          1                   -0.446298    1.040255   -1.857903
     13          1                   -1.876814    0.728716    0.859491
     14          1                   -1.158738    2.256994    0.148218
 ---------------------------------------------------------------------
   CHANGE IN THE REACTION COORDINATE =    0.27691
   NET REACTION COORDINATE UP TO THIS POINT =    0.55390
  # OF POINTS ALONG THE PATH =   2
  # OF STEPS =   1

 Calculating another point on the path.
 Point Number  3 in FORWARD path direction.
 Using LQA Reaction Path Following.
   LQA: T_Est iteration completed in    3 iterations.
 IRC-IRC-IRC-IRC-IRC-IRC-IRC-IRC-IRC-IRC-IRC-IRC-IRC-IRC-IRC-IRC-IRC-IRC
 Leave Link  123 at Sat Jul  6 22:01:54 2019, MaxMem=   536870912 cpu:               0.0 elap:               0.0
 (Enter /home/zxli/Documents/Softwares/g16/l202.exe)
                          Input orientation:                          
 ---------------------------------------------------------------------
 Center     Atomic      Atomic             Coordinates (Angstroms)
 Number     Number       Type             X           Y           Z
 ---------------------------------------------------------------------
      1          6           0        1.318814   -0.076934    0.509269
      2          8           0        0.964459   -1.133322   -0.085874
      3          6           0       -0.815862   -0.894192   -1.055624
      4          6           0       -0.921766    0.483461   -1.047504
      5          6           0       -1.171757    1.165652    0.158175
      6          6           0        0.504013    0.578115    1.461794
      7          1           0        2.219096    0.472351    0.124988
      8          1           0        0.892023    1.468285    1.949592
      9          1           0       -0.153122   -0.030733    2.076507
     10          1           0       -0.519046   -1.421984   -1.955771
     11          1           0       -1.329274   -1.483067   -0.299942
     12          1           0       -0.448603    1.040211   -1.857938
     13          1           0       -1.886325    0.733272    0.856515
     14          1           0       -1.144742    2.252902    0.157775
 ---------------------------------------------------------------------
                    Distance matrix (angstroms):
                    1          2          3          4          5
     1  C    0.000000
     2  O    1.263218   0.000000
     3  C    2.770135   2.041358   0.000000
     4  C    2.785280   2.663938   1.381741   0.000000
     5  C    2.805393   3.147739   2.417214   1.407672   0.000000
     6  C    1.414317   2.352935   3.201117   2.887625   2.202912
     7  H    1.122450   2.048600   3.531608   3.352592   3.461163
     8  H    2.155083   3.304047   4.186824   3.638996   2.749536
     9  H    2.150573   2.672187   3.315875   3.258013   2.479707
    10  H    3.356085   2.404293   1.084863   2.148919   3.404505
    11  H    3.105545   2.330099   1.086932   2.142929   2.692656
    12  H    3.158394   3.140255   2.126147   1.091173   2.145553
    13  H    3.324144   3.535427   2.729616   2.148969   1.088687
    14  H    3.408928   3.996824   3.388908   2.152519   1.087586
                    6          7          8          9         10
     6  C    0.000000
     7  H    2.177096   0.000000
     8  H    1.086693   2.466210   0.000000
     9  H    1.086459   3.112706   1.831799   0.000000
    10  H    4.089839   3.926255   5.059311   4.281208   0.000000
    11  H    3.273091   4.073716   4.324933   3.023263   1.844443
    12  H    3.484484   3.372103   4.059288   4.088286   2.465144
    13  H    2.470658   4.178241   3.074781   2.253015   3.797832
    14  H    2.687707   3.806159   2.823941   3.143219   4.285248
                   11         12         13         14
    11  H    0.000000
    12  H    3.093520   0.000000
    13  H    2.561222   3.086991   0.000000
    14  H    3.768424   2.453228   1.829606   0.000000
 Symmetry turned off by external request.
 Stoichiometry    C5H8O
 Framework group  C1[X(C5H8O)]
 Deg. of freedom    36
 Full point group                 C1      NOp   1
 Rotational constants (GHZ):           4.7307361           3.7696823           2.4114959
 Leave Link  202 at Sat Jul  6 22:01:54 2019, MaxMem=   536870912 cpu:               0.0 elap:               0.0
 (Enter /home/zxli/Documents/Softwares/g16/l301.exe)
 Standard basis: STO-3G (5D, 7F)
 Ernie: Thresh=  0.10000D-02 Tol=  0.10000D-05 Strict=F.
    38 basis functions,   114 primitive gaussians,    38 cartesian basis functions
    23 alpha electrons       23 beta electrons
       nuclear repulsion energy       227.8241488804 Hartrees.
 IExCor=    0 DFT=F Ex=HF Corr=None ExCW=0 ScaHFX=  1.000000
 ScaDFX=  1.000000  1.000000  1.000000  1.000000 ScalE2=  1.000000  1.000000
 IRadAn=      5 IRanWt=     -1 IRanGd=            0 ICorTp=0 IEmpDi=  4
 NAtoms=   14 NActive=   14 NUniq=   14 SFac= 1.00D+00 NAtFMM=   60 NAOKFM=F Big=F
 Integral buffers will be    131072 words long.
 Raffenetti 1 integral format.
 Two-electron integral symmetry is turned off.
 Leave Link  301 at Sat Jul  6 22:01:54 2019, MaxMem=   536870912 cpu:               0.0 elap:               0.0
 (Enter /home/zxli/Documents/Softwares/g16/l402.exe)
 External calculation of energy and first derivatives.
 Running external command "python3 Gaudftb.py R"
         input file       "/scratch/zxli/gaussian/Gau-15503.EIn"
         output file      "/scratch/zxli/gaussian/Gau-15503.EOu"
         message file     "/scratch/zxli/gaussian/Gau-15503.EMs"
         fchk file        "/scratch/zxli/gaussian/Gau-15503.EFC"
         mat. el file     "/scratch/zxli/gaussian/Gau-15503.EUF"
 Recovered energy= -14.7779931068     dipole=      0.000000000000      0.000000000000      0.000000000000
 NRF= 0 NRA=   0 NVA=   0 HaveQM=F NVQ=       0
 Convergence limit is  0.750E-04 MaxStp= 10000 StMxLn= 3.00D-04 StpMin= 1.00D-06.
 Convergence criteria             0.00011250 0.00007500 0.00045000 0.00030000
  Step  NS  ND Rises OKQ   Scale  Max. Force  RMS Force Max. Disp.  RMS Disp.     Energy   Flag
     1   0   0   F    T  1.00D+00 0.00000000 0.00000000 0.00000000 0.00000000  -14.7779931 ====
 Running external command "python3 Gaudftb.py R"
         input file       "/scratch/zxli/gaussian/Gau-15503.EIn"
         output file      "/scratch/zxli/gaussian/Gau-15503.EOu"
         message file     "/scratch/zxli/gaussian/Gau-15503.EMs"
         fchk file        "/scratch/zxli/gaussian/Gau-15503.EFC"
         mat. el file     "/scratch/zxli/gaussian/Gau-15503.EUF"
 Recovered energy= -14.7779931068     dipole=      0.000000000000      0.000000000000      0.000000000000
 Energy=    -14.7779931     NIter=   0.
 Dipole moment=       0.000000       0.000000       0.000000
 Leave Link  402 at Sat Jul  6 22:01:54 2019, MaxMem=   536870912 cpu:               0.0 elap:               0.3
 (Enter /home/zxli/Documents/Softwares/g16/l716.exe)
 Dipole        = 0.00000000D+00 0.00000000D+00 0.00000000D+00
 -------------------------------------------------------------------
 Center     Atomic                   Forces (Hartrees/Bohr)
 Number     Number              X              Y              Z
 -------------------------------------------------------------------
      1        6           0.001219483   -0.001198944   -0.001598427
      2        8           0.009712990   -0.001185525    0.006530302
      3        6          -0.009603359    0.001903557   -0.006153646
      4        6           0.000208748   -0.001709922   -0.000523928
      5        6           0.009828261   -0.003235022    0.009710869
      6        6          -0.011764781    0.004179732   -0.007011242
      7        1           0.000187884    0.000114523    0.000221001
      8        1          -0.000718446    0.000317258   -0.000519051
      9        1           0.000835041    0.000151090    0.000055917
     10        1          -0.000524419    0.000130883   -0.000413992
     11        1           0.000321616    0.000176537   -0.000142590
     12        1          -0.000211700    0.000023460   -0.000047825
     13        1          -0.000119313    0.000527044   -0.000526050
     14        1           0.000627994   -0.000194671    0.000418662
 -------------------------------------------------------------------
 Cartesian Forces:  Max     0.011764781 RMS     0.004055500
 Leave Link  716 at Sat Jul  6 22:01:54 2019, MaxMem=   536870912 cpu:               0.0 elap:               0.0
 (Enter /home/zxli/Documents/Softwares/g16/l123.exe)
 IRC-IRC-IRC-IRC-IRC-IRC-IRC-IRC-IRC-IRC-IRC-IRC-IRC-IRC-IRC-IRC-IRC-IRC
 Pt  3 Step number   1 out of a maximum of  10
 Using modified Bulirsch-Stoer corrector integration.
   Using distance weighted interpolants to fit PES.
 PreDWI: IReCr0= 2 IReCr1= 1 IReCr2= 1 IReCr3= 1
 Modified Bulirsch-Stoer Extrapolation Cycles:
    EPS =    0.000010000000000
    Cycle     1 NS=    48
      PEZero:  N= 2 I= 1 D=  1.44D-03 Err=  4.24D-05
    Cycle     2 NS=    64 Truncation Error =  0.000042440
      PEZero:  N= 3 I= 2 D=  1.44D-03 Err=  2.83D-05
      PEZero:  N= 3 I= 1 D=  2.89D-03 Err=  6.20D-08
    Cycle     3 NS=    96 Truncation Error =  0.000000062
 BS completed in    3 cycles and     208 integration steps.
 Maximum DWI energy   std dev =  0.000001899 at pt    48
 Maximum DWI gradient std dev =  0.047055209 at pt    28
 SUMMARY OF CORRECTOR INTEGRATION:
   Predictor End Point Energy =   -14.777993
   Old End Point Energy       =   -14.777993
   Corrected End Point Energy =   -14.777996
   Predictor End-Start Dist.  =     0.277000
   Old End-Start Dist.        =     0.277000
   New End-Start Dist.        =     0.276947
   New End-Old End Dist.      =     0.006001
 CORRECTOR INTEGRATION CONVERGENCE:
   Recorrection delta-x convergence threshold:    0.010000
   Delta-x Convergence Met
 Point Number:   3          Path Number:   1
                    CURRENT STRUCTURE
                Cartesian Coordinates (Ang):                
 ---------------------------------------------------------------------
 Center     Atomic                     Coordinates (Angstroms)
 Number     Number                        X           Y           Z
 ---------------------------------------------------------------------
      1          6                    1.318791   -0.076773    0.509247
      2          8                    0.964283   -1.133395   -0.086054
      3          6                   -0.815585   -0.894318   -1.055419
      4          6                   -0.921597    0.483514   -1.047452
      5          6                   -1.171656    1.165587    0.158420
      6          6                    0.503690    0.578145    1.461650
      7          1                    2.219672    0.471704    0.125596
      8          1                    0.892228    1.468044    1.949634
      9          1                   -0.152688   -0.029984    2.076123
     10          1                   -0.519708   -1.421950   -1.956001
     11          1                   -1.329054   -1.483030   -0.300238
     12          1                   -0.449177    1.040377   -1.858214
     13          1                   -1.885758    0.733801    0.856205
     14          1                   -1.145212    2.252884    0.157451
 ---------------------------------------------------------------------
   CHANGE IN THE REACTION COORDINATE =    0.27695
   NET REACTION COORDINATE UP TO THIS POINT =    0.83085
  # OF POINTS ALONG THE PATH =   3
  # OF STEPS =   1

 Calculating another point on the path.
 Point Number  4 in FORWARD path direction.
 Using LQA Reaction Path Following.
   LQA: T_Est iteration completed in    3 iterations.
 IRC-IRC-IRC-IRC-IRC-IRC-IRC-IRC-IRC-IRC-IRC-IRC-IRC-IRC-IRC-IRC-IRC-IRC
 Leave Link  123 at Sat Jul  6 22:01:54 2019, MaxMem=   536870912 cpu:               0.0 elap:               0.0
 (Enter /home/zxli/Documents/Softwares/g16/l202.exe)
                          Input orientation:                          
 ---------------------------------------------------------------------
 Center     Atomic      Atomic             Coordinates (Angstroms)
 Number     Number       Type             X           Y           Z
 ---------------------------------------------------------------------
      1          6           0        1.320500   -0.079261    0.506693
      2          8           0        0.976090   -1.134534   -0.078147
      3          6           0       -0.830798   -0.890839   -1.065646
      4          6           0       -0.921452    0.480594   -1.047973
      5          6           0       -1.155107    1.160732    0.173277
      6          6           0        0.485416    0.585583    1.449633
      7          1           0        2.223181    0.474768    0.129587
      8          1           0        0.876971    1.474401    1.938755
      9          1           0       -0.144643   -0.033991    2.082880
     10          1           0       -0.529365   -1.419291   -1.963449
     11          1           0       -1.324911   -1.481791   -0.299382
     12          1           0       -0.452736    1.040652   -1.858709
     13          1           0       -1.894486    0.739081    0.853204
     14          1           0       -1.131912    2.248729    0.166606
 ---------------------------------------------------------------------
                    Distance matrix (angstroms):
                    1          2          3          4          5
     1  C    0.000000
     2  O    1.254694   0.000000
     3  C    2.785497   2.073496   0.000000
     4  C    2.785099   2.673923   1.374539   0.000000
     5  C    2.788795   3.142206   2.418481   1.417263   0.000000
     6  C    1.424261   2.352377   3.199824   2.868508   2.156663
     7  H    1.124273   2.046520   3.552499   3.357885   3.447504
     8  H    2.159024   3.299130   4.187751   3.625262   2.710100
     9  H    2.152454   2.671567   3.334398   3.266568   2.468801
    10  H    3.364415   2.429371   1.084515   2.145085   3.407883
    11  H    3.100814   2.337549   1.086523   2.138719   2.689826
    12  H    3.161282   3.153313   2.121918   1.091170   2.153303
    13  H    3.335549   3.552190   2.733140   2.151299   1.089390
    14  H    3.398459   3.993751   3.386149   2.155412   1.088265
                    6          7          8          9         10
     6  C    0.000000
     7  H    2.185092   0.000000
     8  H    1.087452   2.466705   0.000000
     9  H    1.087128   3.111394   1.827488   0.000000
    10  H    4.086372   3.942686   5.057513   4.294164   0.000000
    11  H    3.257357   4.074444   4.312379   3.027264   1.845513
    12  H    3.468767   3.381431   4.046850   4.097060   2.463364
    13  H    2.458297   4.189112   3.065957   2.274136   3.802060
    14  H    2.651031   3.795386   2.788496   3.139684   4.284223
                   11         12         13         14
    11  H    0.000000
    12  H    3.091101   0.000000
    13  H    2.566153   3.086107   0.000000
    14  H    3.764462   2.454105   1.825370   0.000000
 Symmetry turned off by external request.
 Stoichiometry    C5H8O
 Framework group  C1[X(C5H8O)]
 Deg. of freedom    36
 Full point group                 C1      NOp   1
 Rotational constants (GHZ):           4.7272440           3.7784541           2.4137404
 Leave Link  202 at Sat Jul  6 22:01:54 2019, MaxMem=   536870912 cpu:               0.0 elap:               0.0
 (Enter /home/zxli/Documents/Softwares/g16/l301.exe)
 Standard basis: STO-3G (5D, 7F)
 Ernie: Thresh=  0.10000D-02 Tol=  0.10000D-05 Strict=F.
    38 basis functions,   114 primitive gaussians,    38 cartesian basis functions
    23 alpha electrons       23 beta electrons
       nuclear repulsion energy       227.8618003406 Hartrees.
 IExCor=    0 DFT=F Ex=HF Corr=None ExCW=0 ScaHFX=  1.000000
 ScaDFX=  1.000000  1.000000  1.000000  1.000000 ScalE2=  1.000000  1.000000
 IRadAn=      5 IRanWt=     -1 IRanGd=            0 ICorTp=0 IEmpDi=  4
 NAtoms=   14 NActive=   14 NUniq=   14 SFac= 1.00D+00 NAtFMM=   60 NAOKFM=F Big=F
 Integral buffers will be    131072 words long.
 Raffenetti 1 integral format.
 Two-electron integral symmetry is turned off.
 Leave Link  301 at Sat Jul  6 22:01:55 2019, MaxMem=   536870912 cpu:               0.0 elap:               0.0
 (Enter /home/zxli/Documents/Softwares/g16/l402.exe)
 External calculation of energy and first derivatives.
 Running external command "python3 Gaudftb.py R"
         input file       "/scratch/zxli/gaussian/Gau-15503.EIn"
         output file      "/scratch/zxli/gaussian/Gau-15503.EOu"
         message file     "/scratch/zxli/gaussian/Gau-15503.EMs"
         fchk file        "/scratch/zxli/gaussian/Gau-15503.EFC"
         mat. el file     "/scratch/zxli/gaussian/Gau-15503.EUF"
 Recovered energy= -14.7804341519     dipole=      0.000000000000      0.000000000000      0.000000000000
 NRF= 0 NRA=   0 NVA=   0 HaveQM=F NVQ=       0
 Convergence limit is  0.750E-04 MaxStp= 10000 StMxLn= 3.00D-04 StpMin= 1.00D-06.
 Convergence criteria             0.00011250 0.00007500 0.00045000 0.00030000
  Step  NS  ND Rises OKQ   Scale  Max. Force  RMS Force Max. Disp.  RMS Disp.     Energy   Flag
     1   0   0   F    T  1.00D+00 0.00000000 0.00000000 0.00000000 0.00000000  -14.7804342 ====
 Running external command "python3 Gaudftb.py R"
         input file       "/scratch/zxli/gaussian/Gau-15503.EIn"
         output file      "/scratch/zxli/gaussian/Gau-15503.EOu"
         message file     "/scratch/zxli/gaussian/Gau-15503.EMs"
         fchk file        "/scratch/zxli/gaussian/Gau-15503.EFC"
         mat. el file     "/scratch/zxli/gaussian/Gau-15503.EUF"
 Recovered energy= -14.7804341519     dipole=      0.000000000000      0.000000000000      0.000000000000
 Energy=    -14.7804342     NIter=   0.
 Dipole moment=       0.000000       0.000000       0.000000
 Leave Link  402 at Sat Jul  6 22:01:55 2019, MaxMem=   536870912 cpu:               0.0 elap:               0.3
 (Enter /home/zxli/Documents/Softwares/g16/l716.exe)
 Dipole        = 0.00000000D+00 0.00000000D+00 0.00000000D+00
 -------------------------------------------------------------------
 Center     Atomic                   Forces (Hartrees/Bohr)
 Number     Number              X              Y              Z
 -------------------------------------------------------------------
      1        6           0.001372628   -0.001431874   -0.001964308
      2        8           0.012431532   -0.001640656    0.008066840
      3        6          -0.012016273    0.002384872   -0.007781350
      4        6           0.000461336   -0.002133653   -0.000313298
      5        6           0.013533089   -0.004347305    0.012988233
      6        6          -0.015957831    0.005800055   -0.010013258
      7        1           0.000296627    0.000075166    0.000388290
      8        1          -0.000962458    0.000398186   -0.000708586
      9        1           0.000925279    0.000150453    0.000103230
     10        1          -0.000757473    0.000169466   -0.000566295
     11        1           0.000390058    0.000176012   -0.000127193
     12        1          -0.000336206    0.000044905   -0.000063315
     13        1          -0.000192213    0.000631221   -0.000550571
     14        1           0.000811906   -0.000276848    0.000541581
 -------------------------------------------------------------------
 Cartesian Forces:  Max     0.015957831 RMS     0.005368823
 Leave Link  716 at Sat Jul  6 22:01:55 2019, MaxMem=   536870912 cpu:               0.0 elap:               0.0
 (Enter /home/zxli/Documents/Softwares/g16/l123.exe)
 IRC-IRC-IRC-IRC-IRC-IRC-IRC-IRC-IRC-IRC-IRC-IRC-IRC-IRC-IRC-IRC-IRC-IRC
 Pt  4 Step number   1 out of a maximum of  10
 Using modified Bulirsch-Stoer corrector integration.
   Using distance weighted interpolants to fit PES.
 PreDWI: IReCr0= 2 IReCr1= 1 IReCr2= 1 IReCr3= 1
 Modified Bulirsch-Stoer Extrapolation Cycles:
    EPS =    0.000010000000000
    Cycle     1 NS=    48
      PEZero:  N= 2 I= 1 D=  1.44D-03 Err=  4.39D-05
    Cycle     2 NS=    64 Truncation Error =  0.000043871
      PEZero:  N= 3 I= 2 D=  1.44D-03 Err=  2.92D-05
      PEZero:  N= 3 I= 1 D=  2.89D-03 Err=  6.54D-08
    Cycle     3 NS=    96 Truncation Error =  0.000000065
 BS completed in    3 cycles and     208 integration steps.
 Maximum DWI energy   std dev =  0.000001538 at pt    33
 Maximum DWI gradient std dev =  0.033527302 at pt    28
 SUMMARY OF CORRECTOR INTEGRATION:
   Predictor End Point Energy =   -14.780434
   Old End Point Energy       =   -14.780434
   Corrected End Point Energy =   -14.780437
   Predictor End-Start Dist.  =     0.277004
   Old End-Start Dist.        =     0.277004
   New End-Start Dist.        =     0.276958
   New End-Old End Dist.      =     0.004933
 CORRECTOR INTEGRATION CONVERGENCE:
   Recorrection delta-x convergence threshold:    0.010000
   Delta-x Convergence Met
 Point Number:   4          Path Number:   1
                    CURRENT STRUCTURE
                Cartesian Coordinates (Ang):                
 ---------------------------------------------------------------------
 Center     Atomic                     Coordinates (Angstroms)
 Number     Number                        X           Y           Z
 ---------------------------------------------------------------------
      1          6                    1.320468   -0.079069    0.506725
      2          8                    0.975966   -1.134628   -0.078287
      3          6                   -0.830605   -0.890962   -1.065489
      4          6                   -0.921334    0.480677   -1.047912
      5          6                   -1.155035    1.160665    0.173442
      6          6                    0.485197    0.585578    1.449506
      7          1                    2.223542    0.474313    0.130074
      8          1                    0.877202    1.474155    1.938820
      9          1                   -0.144350   -0.033254    2.082347
     10          1                   -0.529872   -1.419279   -1.963658
     11          1                   -1.324834   -1.481771   -0.299707
     12          1                   -0.453157    1.040804   -1.858870
     13          1                   -1.893789    0.739478    0.852951
     14          1                   -1.132295    2.248692    0.166304
 ---------------------------------------------------------------------
   CHANGE IN THE REACTION COORDINATE =    0.27696
   NET REACTION COORDINATE UP TO THIS POINT =    1.10781
  # OF POINTS ALONG THE PATH =   4
  # OF STEPS =   1

 Calculating another point on the path.
 Point Number  5 in FORWARD path direction.
 Using LQA Reaction Path Following.
   LQA: T_Est iteration completed in    3 iterations.
 IRC-IRC-IRC-IRC-IRC-IRC-IRC-IRC-IRC-IRC-IRC-IRC-IRC-IRC-IRC-IRC-IRC-IRC
 Leave Link  123 at Sat Jul  6 22:01:55 2019, MaxMem=   536870912 cpu:               0.0 elap:               0.0
 (Enter /home/zxli/Documents/Softwares/g16/l202.exe)
                          Input orientation:                          
 ---------------------------------------------------------------------
 Center     Atomic      Atomic             Coordinates (Angstroms)
 Number     Number       Type             X           Y           Z
 ---------------------------------------------------------------------
      1          6           0        1.321958   -0.081270    0.504248
      2          8           0        0.987250   -1.135891   -0.070995
      3          6           0       -0.844863   -0.887796   -1.075063
      4          6           0       -0.920831    0.477895   -1.048083
      5          6           0       -1.138078    1.155670    0.188744
      6          6           0        0.466187    0.593192    1.436858
      7          1           0        2.228225    0.475955    0.135711
      8          1           0        0.861958    1.480168    1.927728
      9          1           0       -0.136624   -0.036034    2.088047
     10          1           0       -0.540941   -1.416557   -1.971515
     11          1           0       -1.320411   -1.480682   -0.299118
     12          1           0       -0.457864    1.041451   -1.859676
     13          1           0       -1.901339    0.745294    0.850103
     14          1           0       -1.119566    2.244431    0.175069
 ---------------------------------------------------------------------
                    Distance matrix (angstroms):
                    1          2          3          4          5
     1  C    0.000000
     2  O    1.247061   0.000000
     3  C    2.799968   2.103887   0.000000
     4  C    2.784332   2.683240   1.368069   0.000000
     5  C    2.771524   3.136198   2.420525   1.426996   0.000000
     6  C    1.434226   2.352628   3.197175   2.848165   2.108989
     7  H    1.125895   2.044700   3.573466   3.364212   3.434650
     8  H    2.162402   3.294595   4.187749   3.610864   2.670114
     9  H    2.153584   2.671000   3.351473   3.273288   2.455692
    10  H    3.373839   2.454815   1.084243   2.141493   3.411692
    11  H    3.096105   2.344401   1.086164   2.134628   2.687305
    12  H    3.164871   3.166788   2.118343   1.091154   2.161426
    13  H    3.345515   3.568084   2.736675   2.153139   1.090124
    14  H    3.387962   3.990714   3.383658   2.157834   1.089004
                    6          7          8          9         10
     6  C    0.000000
     7  H    2.193515   0.000000
     8  H    1.088262   2.467073   0.000000
     9  H    1.087821   3.109061   1.822563   0.000000
    10  H    4.082941   3.961096   5.056010   4.306897   0.000000
    11  H    3.241372   4.075576   4.299791   3.030992   1.846239
    12  H    3.452816   3.393586   4.034703   4.104715   2.461953
    13  H    2.443889   4.199547   3.055671   2.292858   3.806023
    14  H    2.614061   3.786391   2.753607   3.134675   4.283160
                   11         12         13         14
    11  H    0.000000
    12  H    3.088767   0.000000
    13  H    2.571606   3.084515   0.000000
    14  H    3.760540   2.454628   1.820509   0.000000
 Symmetry turned off by external request.
 Stoichiometry    C5H8O
 Framework group  C1[X(C5H8O)]
 Deg. of freedom    36
 Full point group                 C1      NOp   1
 Rotational constants (GHZ):           4.7236672           3.7890985           2.4164766
 Leave Link  202 at Sat Jul  6 22:01:55 2019, MaxMem=   536870912 cpu:               0.0 elap:               0.0
 (Enter /home/zxli/Documents/Softwares/g16/l301.exe)
 Standard basis: STO-3G (5D, 7F)
 Ernie: Thresh=  0.10000D-02 Tol=  0.10000D-05 Strict=F.
    38 basis functions,   114 primitive gaussians,    38 cartesian basis functions
    23 alpha electrons       23 beta electrons
       nuclear repulsion energy       227.9267395837 Hartrees.
 IExCor=    0 DFT=F Ex=HF Corr=None ExCW=0 ScaHFX=  1.000000
 ScaDFX=  1.000000  1.000000  1.000000  1.000000 ScalE2=  1.000000  1.000000
 IRadAn=      5 IRanWt=     -1 IRanGd=            0 ICorTp=0 IEmpDi=  4
 NAtoms=   14 NActive=   14 NUniq=   14 SFac= 1.00D+00 NAtFMM=   60 NAOKFM=F Big=F
 Integral buffers will be    131072 words long.
 Raffenetti 1 integral format.
 Two-electron integral symmetry is turned off.
 Leave Link  301 at Sat Jul  6 22:01:55 2019, MaxMem=   536870912 cpu:               0.0 elap:               0.0
 (Enter /home/zxli/Documents/Softwares/g16/l402.exe)
 External calculation of energy and first derivatives.
 Running external command "python3 Gaudftb.py R"
         input file       "/scratch/zxli/gaussian/Gau-15503.EIn"
         output file      "/scratch/zxli/gaussian/Gau-15503.EOu"
         message file     "/scratch/zxli/gaussian/Gau-15503.EMs"
         fchk file        "/scratch/zxli/gaussian/Gau-15503.EFC"
         mat. el file     "/scratch/zxli/gaussian/Gau-15503.EUF"
 Recovered energy= -14.7835505467     dipole=      0.000000000000      0.000000000000      0.000000000000
 NRF= 0 NRA=   0 NVA=   0 HaveQM=F NVQ=       0
 Convergence limit is  0.750E-04 MaxStp= 10000 StMxLn= 3.00D-04 StpMin= 1.00D-06.
 Convergence criteria             0.00011250 0.00007500 0.00045000 0.00030000
  Step  NS  ND Rises OKQ   Scale  Max. Force  RMS Force Max. Disp.  RMS Disp.     Energy   Flag
     1   0   0   F    T  1.00D+00 0.00000000 0.00000000 0.00000000 0.00000000  -14.7835505 ====
 Running external command "python3 Gaudftb.py R"
         input file       "/scratch/zxli/gaussian/Gau-15503.EIn"
         output file      "/scratch/zxli/gaussian/Gau-15503.EOu"
         message file     "/scratch/zxli/gaussian/Gau-15503.EMs"
         fchk file        "/scratch/zxli/gaussian/Gau-15503.EFC"
         mat. el file     "/scratch/zxli/gaussian/Gau-15503.EUF"
 Recovered energy= -14.7835505467     dipole=      0.000000000000      0.000000000000      0.000000000000
 Energy=    -14.7835505     NIter=   0.
 Dipole moment=       0.000000       0.000000       0.000000
 Leave Link  402 at Sat Jul  6 22:01:55 2019, MaxMem=   536870912 cpu:               0.1 elap:               0.3
 (Enter /home/zxli/Documents/Softwares/g16/l716.exe)
 Dipole        = 0.00000000D+00 0.00000000D+00 0.00000000D+00
 -------------------------------------------------------------------
 Center     Atomic                   Forces (Hartrees/Bohr)
 Number     Number              X              Y              Z
 -------------------------------------------------------------------
      1        6           0.001382296   -0.001580917   -0.002304876
      2        8           0.014773459   -0.002076880    0.009255824
      3        6          -0.013937039    0.002725315   -0.009076108
      4        6           0.000831460   -0.002477395    0.000046486
      5        6           0.017239400   -0.005458367    0.016240731
      6        6          -0.020177491    0.007404912   -0.013152418
      7        1           0.000419985   -0.000000162    0.000606524
      8        1          -0.001224680    0.000474906   -0.000922828
      9        1           0.000961396    0.000182418    0.000104909
     10        1          -0.001025975    0.000209501   -0.000726591
     11        1           0.000451301    0.000158644   -0.000120210
     12        1          -0.000487708    0.000080581   -0.000076542
     13        1          -0.000209195    0.000730515   -0.000547152
     14        1           0.001002790   -0.000373068    0.000672250
 -------------------------------------------------------------------
 Cartesian Forces:  Max     0.020177491 RMS     0.006624665
 Leave Link  716 at Sat Jul  6 22:01:55 2019, MaxMem=   536870912 cpu:               0.0 elap:               0.0
 (Enter /home/zxli/Documents/Softwares/g16/l123.exe)
 IRC-IRC-IRC-IRC-IRC-IRC-IRC-IRC-IRC-IRC-IRC-IRC-IRC-IRC-IRC-IRC-IRC-IRC
 Pt  5 Step number   1 out of a maximum of  10
 Using modified Bulirsch-Stoer corrector integration.
   Using distance weighted interpolants to fit PES.
 PreDWI: IReCr0= 2 IReCr1= 1 IReCr2= 1 IReCr3= 1
 Modified Bulirsch-Stoer Extrapolation Cycles:
    EPS =    0.000010000000000
    Cycle     1 NS=    48
      PEZero:  N= 2 I= 1 D=  1.44D-03 Err=  4.51D-05
    Cycle     2 NS=    64 Truncation Error =  0.000045103
      PEZero:  N= 3 I= 2 D=  1.44D-03 Err=  3.01D-05
      PEZero:  N= 3 I= 1 D=  2.89D-03 Err=  7.81D-08
    Cycle     3 NS=    96 Truncation Error =  0.000000078
 BS completed in    3 cycles and     208 integration steps.
 Maximum DWI energy   std dev =  0.000001389 at pt    30
 Maximum DWI gradient std dev =  0.025128393 at pt    38
 SUMMARY OF CORRECTOR INTEGRATION:
   Predictor End Point Energy =   -14.783551
   Old End Point Energy       =   -14.783551
   Corrected End Point Energy =   -14.783553
   Predictor End-Start Dist.  =     0.277006
   Old End-Start Dist.        =     0.277006
   New End-Start Dist.        =     0.276964
   New End-Old End Dist.      =     0.004139
 CORRECTOR INTEGRATION CONVERGENCE:
   Recorrection delta-x convergence threshold:    0.010000
   Delta-x Convergence Met
 Point Number:   5          Path Number:   1
                    CURRENT STRUCTURE
                Cartesian Coordinates (Ang):                
 ---------------------------------------------------------------------
 Center     Atomic                     Coordinates (Angstroms)
 Number     Number                        X           Y           Z
 ---------------------------------------------------------------------
      1          6                    1.321912   -0.081091    0.504298
      2          8                    0.987156   -1.135969   -0.071102
      3          6                   -0.844717   -0.887907   -1.074933
      4          6                   -0.920747    0.477989   -1.048018
      5          6                   -1.138026    1.155603    0.188854
      6          6                    0.466041    0.593159    1.436741
      7          1                    2.228414    0.475621    0.136102
      8          1                    0.862128    1.479977    1.927732
      9          1                   -0.136458   -0.035336    2.087445
     10          1                   -0.541301   -1.416568   -1.971684
     11          1                   -1.320409   -1.480687   -0.299426
     12          1                   -0.458160    1.041584   -1.859744
     13          1                   -1.900579    0.745578    0.849905
     14          1                   -1.119803    2.244364    0.174863
 ---------------------------------------------------------------------
   CHANGE IN THE REACTION COORDINATE =    0.27696
   NET REACTION COORDINATE UP TO THIS POINT =    1.38477
  # OF POINTS ALONG THE PATH =   5
  # OF STEPS =   1

 Calculating another point on the path.
 Point Number  6 in FORWARD path direction.
 Using LQA Reaction Path Following.
   LQA: T_Est iteration completed in    3 iterations.
 IRC-IRC-IRC-IRC-IRC-IRC-IRC-IRC-IRC-IRC-IRC-IRC-IRC-IRC-IRC-IRC-IRC-IRC
 Leave Link  123 at Sat Jul  6 22:01:55 2019, MaxMem=   536870912 cpu:               0.0 elap:               0.0
 (Enter /home/zxli/Documents/Softwares/g16/l202.exe)
                          Input orientation:                          
 ---------------------------------------------------------------------
 Center     Atomic      Atomic             Coordinates (Angstroms)
 Number     Number       Type             X           Y           Z
 ---------------------------------------------------------------------
      1          6           0        1.323129   -0.082969    0.501942
      2          8           0        0.997920   -1.137349   -0.064409
      3          6           0       -0.858026   -0.885074   -1.083847
      4          6           0       -0.919923    0.475391   -1.047807
      5          6           0       -1.120695    1.150456    0.204501
      6          6           0        0.446424    0.600878    1.423463
      7          1           0        2.234033    0.476021    0.143340
      8          1           0        0.846674    1.485813    1.916199
      9          1           0       -0.129400   -0.036791    2.091764
     10          1           0       -0.553682   -1.413788   -1.979946
     11          1           0       -1.315878   -1.479827   -0.299181
     12          1           0       -0.463868    1.042636   -1.860706
     13          1           0       -1.906608    0.751733    0.847379
     14          1           0       -1.107271    2.239927    0.183477
 ---------------------------------------------------------------------
                    Distance matrix (angstroms):
                    1          2          3          4          5
     1  C    0.000000
     2  O    1.240255   0.000000
     3  C    2.813457   2.132471   0.000000
     4  C    2.782943   2.691862   1.362349   0.000000
     5  C    2.753559   3.129679   2.423266   1.436766   0.000000
     6  C    1.444112   2.353580   3.193156   2.826628   2.060040
     7  H    1.127303   2.043061   3.594356   3.371390   3.422397
     8  H    2.165227   3.290388   4.186571   3.595434   2.629242
     9  H    2.153951   2.670422   3.366747   3.277829   2.440079
    10  H    3.384268   2.480558   1.084046   2.138227   3.415942
    11  H    3.091500   2.350759   1.085845   2.130750   2.685178
    12  H    3.168983   3.180541   2.115404   1.091126   2.169821
    13  H    3.353693   3.582774   2.740127   2.154447   1.090840
    14  H    3.376998   3.987389   3.381400   2.159803   1.089757
                    6          7          8          9         10
     6  C    0.000000
     7  H    2.202238   0.000000
     8  H    1.089081   2.467280   0.000000
     9  H    1.088495   3.105664   1.817104   0.000000
    10  H    4.079495   3.981341   5.054565   4.319138   0.000000
    11  H    3.225297   4.077135   4.287138   3.034254   1.846692
    12  H    3.436502   3.408214   4.022304   4.110845   2.460956
    13  H    2.427218   4.209108   3.043322   2.308405   3.809679
    14  H    2.576434   3.778530   2.718256   3.127497   4.282113
                   11         12         13         14
    11  H    0.000000
    12  H    3.086599   0.000000
    13  H    2.577484   3.082182   0.000000
    14  H    3.756733   2.454824   1.815055   0.000000
 Symmetry turned off by external request.
 Stoichiometry    C5H8O
 Framework group  C1[X(C5H8O)]
 Deg. of freedom    36
 Full point group                 C1      NOp   1
 Rotational constants (GHZ):           4.7202475           3.8017907           2.4198242
 Leave Link  202 at Sat Jul  6 22:01:55 2019, MaxMem=   536870912 cpu:               0.0 elap:               0.0
 (Enter /home/zxli/Documents/Softwares/g16/l301.exe)
 Standard basis: STO-3G (5D, 7F)
 Ernie: Thresh=  0.10000D-02 Tol=  0.10000D-05 Strict=F.
    38 basis functions,   114 primitive gaussians,    38 cartesian basis functions
    23 alpha electrons       23 beta electrons
       nuclear repulsion energy       228.0250498403 Hartrees.
 IExCor=    0 DFT=F Ex=HF Corr=None ExCW=0 ScaHFX=  1.000000
 ScaDFX=  1.000000  1.000000  1.000000  1.000000 ScalE2=  1.000000  1.000000
 IRadAn=      5 IRanWt=     -1 IRanGd=            0 ICorTp=0 IEmpDi=  4
 NAtoms=   14 NActive=   14 NUniq=   14 SFac= 1.00D+00 NAtFMM=   60 NAOKFM=F Big=F
 Integral buffers will be    131072 words long.
 Raffenetti 1 integral format.
 Two-electron integral symmetry is turned off.
 Leave Link  301 at Sat Jul  6 22:01:55 2019, MaxMem=   536870912 cpu:               0.0 elap:               0.0
 (Enter /home/zxli/Documents/Softwares/g16/l402.exe)
 External calculation of energy and first derivatives.
 Running external command "python3 Gaudftb.py R"
         input file       "/scratch/zxli/gaussian/Gau-15503.EIn"
         output file      "/scratch/zxli/gaussian/Gau-15503.EOu"
         message file     "/scratch/zxli/gaussian/Gau-15503.EMs"
         fchk file        "/scratch/zxli/gaussian/Gau-15503.EFC"
         mat. el file     "/scratch/zxli/gaussian/Gau-15503.EUF"
 Recovered energy= -14.7873129013     dipole=      0.000000000000      0.000000000000      0.000000000000
 NRF= 0 NRA=   0 NVA=   0 HaveQM=F NVQ=       0
 Convergence limit is  0.750E-04 MaxStp= 10000 StMxLn= 3.00D-04 StpMin= 1.00D-06.
 Convergence criteria             0.00011250 0.00007500 0.00045000 0.00030000
  Step  NS  ND Rises OKQ   Scale  Max. Force  RMS Force Max. Disp.  RMS Disp.     Energy   Flag
     1   0   0   F    T  1.00D+00 0.00000000 0.00000000 0.00000000 0.00000000  -14.7873129 ====
 Running external command "python3 Gaudftb.py R"
         input file       "/scratch/zxli/gaussian/Gau-15503.EIn"
         output file      "/scratch/zxli/gaussian/Gau-15503.EOu"
         message file     "/scratch/zxli/gaussian/Gau-15503.EMs"
         fchk file        "/scratch/zxli/gaussian/Gau-15503.EFC"
         mat. el file     "/scratch/zxli/gaussian/Gau-15503.EUF"
 Recovered energy= -14.7873129013     dipole=      0.000000000000      0.000000000000      0.000000000000
 Energy=    -14.7873129     NIter=   0.
 Dipole moment=       0.000000       0.000000       0.000000
 Leave Link  402 at Sat Jul  6 22:01:56 2019, MaxMem=   536870912 cpu:               0.0 elap:               0.3
 (Enter /home/zxli/Documents/Softwares/g16/l716.exe)
 Dipole        = 0.00000000D+00 0.00000000D+00 0.00000000D+00
 -------------------------------------------------------------------
 Center     Atomic                   Forces (Hartrees/Bohr)
 Number     Number              X              Y              Z
 -------------------------------------------------------------------
      1        6           0.001242149   -0.001554106   -0.002551964
      2        8           0.016717950   -0.002557280    0.010089030
      3        6          -0.015387855    0.002927186   -0.010059912
      4        6           0.001290013   -0.002718647    0.000566918
      5        6           0.020872381   -0.006564490    0.019330462
      6        6          -0.024249940    0.008923351   -0.016377909
      7        1           0.000549514   -0.000096765    0.000866141
      8        1          -0.001486103    0.000547772   -0.001144985
      9        1           0.000925875    0.000234282    0.000073310
     10        1          -0.001319202    0.000256342   -0.000882665
     11        1           0.000501107    0.000126632   -0.000121527
     12        1          -0.000659230    0.000128341   -0.000084422
     13        1          -0.000185996    0.000812205   -0.000498797
     14        1           0.001189338   -0.000464823    0.000796320
 -------------------------------------------------------------------
 Cartesian Forces:  Max     0.024249940 RMS     0.007799405
 Leave Link  716 at Sat Jul  6 22:01:56 2019, MaxMem=   536870912 cpu:               0.0 elap:               0.0
 (Enter /home/zxli/Documents/Softwares/g16/l123.exe)
[...]
 (Enter /home/zxli/Documents/Softwares/g16/l123.exe)
 IRC-IRC-IRC-IRC-IRC-IRC-IRC-IRC-IRC-IRC-IRC-IRC-IRC-IRC-IRC-IRC-IRC-IRC
 Pt 19 Step number   1 out of a maximum of  10
 Using modified Bulirsch-Stoer corrector integration.
   Using distance weighted interpolants to fit PES.
 PreDWI: IReCr0= 2 IReCr1= 1 IReCr2= 1 IReCr3= 1
 Modified Bulirsch-Stoer Extrapolation Cycles:
    EPS =    0.000010000000000
    Cycle     1 NS=    48
      PEZero:  N= 2 I= 1 D=  1.44D-03 Err=  9.55D-05
    Cycle     2 NS=    64 Truncation Error =  0.000095544
      PEZero:  N= 3 I= 2 D=  1.44D-03 Err=  6.38D-05
      PEZero:  N= 3 I= 1 D=  2.89D-03 Err=  1.73D-07
    Cycle     3 NS=    96 Truncation Error =  0.000000173
 BS completed in    3 cycles and     208 integration steps.
 Maximum DWI energy   std dev =  0.000008041 at pt    35
 Maximum DWI gradient std dev =  0.024901281 at pt    29
 SUMMARY OF CORRECTOR INTEGRATION:
   Predictor End Point Energy =   -14.792453
   Old End Point Energy       =   -14.792453
   Corrected End Point Energy =   -14.792454
   Predictor End-Start Dist.  =     0.276964
   Old End-Start Dist.        =     0.276964
   New End-Start Dist.        =     0.276853
   New End-Old End Dist.      =     0.005176
 CORRECTOR INTEGRATION CONVERGENCE:
   Recorrection delta-x convergence threshold:    0.010000
   Delta-x Convergence Met
 Point Number:   9          Path Number:   2
                    CURRENT STRUCTURE
                Cartesian Coordinates (Ang):                
 ---------------------------------------------------------------------
 Center     Atomic                     Coordinates (Angstroms)
 Number     Number                        X           Y           Z
 ---------------------------------------------------------------------
      1          6                    1.291305   -0.059809    0.524275
      2          8                    0.799927   -1.106804   -0.207591
      3          6                   -0.589768   -0.938937   -0.900998
      4          6                   -0.892636    0.509366   -1.025714
      5          6                   -1.345798    1.218767    0.016386
      6          6                    0.664870    0.503580    1.571890
      7          1                    2.250926    0.334747    0.152350
      8          1                    1.098810    1.352667    2.083597
      9          1                   -0.219489    0.059937    2.008262
     10          1                   -0.467906   -1.450287   -1.863364
     11          1                   -1.313409   -1.486059   -0.280080
     12          1                   -0.470162    1.034125   -1.883864
     13          1                   -1.799887    0.735314    0.873633
     14          1                   -1.388783    2.301887   -0.007531
 ---------------------------------------------------------------------
   CHANGE IN THE REACTION COORDINATE =    0.27685
   NET REACTION COORDINATE UP TO THIS POINT =    2.49255
  # OF POINTS ALONG THE PATH =  19
  # OF STEPS =   1

 Calculating another point on the path.
 Point Number 10 in REVERSE path direction.
 Using LQA Reaction Path Following.
   LQA: T_Est iteration completed in    4 iterations.
 IRC-IRC-IRC-IRC-IRC-IRC-IRC-IRC-IRC-IRC-IRC-IRC-IRC-IRC-IRC-IRC-IRC-IRC
 Leave Link  123 at Sat Jul  6 22:02:01 2019, MaxMem=   536870912 cpu:               0.0 elap:               0.0
 (Enter /home/zxli/Documents/Softwares/g16/l202.exe)
                          Input orientation:                          
 ---------------------------------------------------------------------
 Center     Atomic      Atomic             Coordinates (Angstroms)
 Number     Number       Type             X           Y           Z
 ---------------------------------------------------------------------
      1          6           0        1.289697   -0.061894    0.524061
      2          8           0        0.789679   -1.101794   -0.217430
      3          6           0       -0.574042   -0.940853   -0.887588
      4          6           0       -0.887800    0.510201   -1.023166
      5          6           0       -1.362190    1.223862    0.004525
      6          6           0        0.676316    0.496363    1.580434
      7          1           0        2.258487    0.315925    0.159624
      8          1           0        1.123838    1.335122    2.097986
      9          1           0       -0.221975    0.070344    2.006740
     10          1           0       -0.469227   -1.453319   -1.853058
     11          1           0       -1.307004   -1.482609   -0.270383
     12          1           0       -0.474952    1.030705   -1.888723
     13          1           0       -1.800785    0.743383    0.871434
     14          1           0       -1.422524    2.306254   -0.032409
 ---------------------------------------------------------------------
                    Distance matrix (angstroms):
                    1          2          3          4          5
     1  C    0.000000
     2  O    1.371576   0.000000
     3  C    2.497768   1.527988   0.000000
     4  C    2.731793   2.462046   1.490766   0.000000
     5  C    2.992589   3.176237   2.470432   1.338099   0.000000
     6  C    1.343060   2.408168   3.117710   3.037331   2.677358
     7  H    1.101869   2.075933   3.270989   3.366876   3.736001
     8  H    2.111020   3.378073   4.120256   3.803784   3.251967
     9  H    2.121551   2.710034   3.086034   3.133230   2.576734
    10  H    3.268115   2.093727   1.098062   2.172403   3.378653
    11  H    3.064707   2.131643   1.100760   2.171107   2.720957
    12  H    3.182653   2.989994   2.213398   1.091126   2.099736
    13  H    3.212510   3.361667   2.726849   2.115993   1.083862
    14  H    3.643341   4.067292   3.463374   2.119749   1.084701
                    6          7          8          9         10
     6  C    0.000000
     7  H    2.134132   0.000000
     8  H    1.082429   2.466463   0.000000
     9  H    1.081738   3.102392   1.849108   0.000000
    10  H    4.111253   3.823813   5.091563   4.157009   0.000000
    11  H    3.357888   4.016510   4.411096   2.962134   1.790974
    12  H    3.694047   3.489745   4.306117   4.020065   2.484287
    13  H    2.588384   4.143318   3.226144   2.057801   3.744517
    14  H    3.206572   4.189049   3.459139   3.255572   4.284615
                   11         12         13         14
    11  H    0.000000
    12  H    3.102915   0.000000
    13  H    2.550021   3.075525   0.000000
    14  H    3.798086   2.443526   1.844609   0.000000
 Symmetry turned off by external request.
 Stoichiometry    C5H8O
 Framework group  C1[X(C5H8O)]
 Deg. of freedom    36
 Full point group                 C1      NOp   1
 Rotational constants (GHZ):           4.7998834           3.7487231           2.4106146
 Leave Link  202 at Sat Jul  6 22:02:01 2019, MaxMem=   536870912 cpu:               0.0 elap:               0.0
 (Enter /home/zxli/Documents/Softwares/g16/l301.exe)
 Standard basis: STO-3G (5D, 7F)
 Ernie: Thresh=  0.10000D-02 Tol=  0.10000D-05 Strict=F.
    38 basis functions,   114 primitive gaussians,    38 cartesian basis functions
    23 alpha electrons       23 beta electrons
       nuclear repulsion energy       229.9090411417 Hartrees.
 IExCor=    0 DFT=F Ex=HF Corr=None ExCW=0 ScaHFX=  1.000000
 ScaDFX=  1.000000  1.000000  1.000000  1.000000 ScalE2=  1.000000  1.000000
 IRadAn=      5 IRanWt=     -1 IRanGd=            0 ICorTp=0 IEmpDi=  4
 NAtoms=   14 NActive=   14 NUniq=   14 SFac= 1.00D+00 NAtFMM=   60 NAOKFM=F Big=F
 Integral buffers will be    131072 words long.
 Raffenetti 1 integral format.
 Two-electron integral symmetry is turned off.
 Leave Link  301 at Sat Jul  6 22:02:01 2019, MaxMem=   536870912 cpu:               0.0 elap:               0.0
 (Enter /home/zxli/Documents/Softwares/g16/l402.exe)
 External calculation of energy and first derivatives.
 Running external command "python3 Gaudftb.py R"
         input file       "/scratch/zxli/gaussian/Gau-15503.EIn"
         output file      "/scratch/zxli/gaussian/Gau-15503.EOu"
         message file     "/scratch/zxli/gaussian/Gau-15503.EMs"
         fchk file        "/scratch/zxli/gaussian/Gau-15503.EFC"
         mat. el file     "/scratch/zxli/gaussian/Gau-15503.EUF"
 Recovered energy= -14.7946253008     dipole=      0.000000000000      0.000000000000      0.000000000000
 NRF= 0 NRA=   0 NVA=   0 HaveQM=F NVQ=       0
 Convergence limit is  0.750E-04 MaxStp= 10000 StMxLn= 3.00D-04 StpMin= 1.00D-06.
 Convergence criteria             0.00011250 0.00007500 0.00045000 0.00030000
  Step  NS  ND Rises OKQ   Scale  Max. Force  RMS Force Max. Disp.  RMS Disp.     Energy   Flag
     1   0   0   F    T  1.00D+00 0.00000000 0.00000000 0.00000000 0.00000000  -14.7946253 ====
 Running external command "python3 Gaudftb.py R"
         input file       "/scratch/zxli/gaussian/Gau-15503.EIn"
         output file      "/scratch/zxli/gaussian/Gau-15503.EOu"
         message file     "/scratch/zxli/gaussian/Gau-15503.EMs"
         fchk file        "/scratch/zxli/gaussian/Gau-15503.EFC"
         mat. el file     "/scratch/zxli/gaussian/Gau-15503.EUF"
 Recovered energy= -14.7946253008     dipole=      0.000000000000      0.000000000000      0.000000000000
 Energy=    -14.7946253     NIter=   0.
 Dipole moment=       0.000000       0.000000       0.000000
 Leave Link  402 at Sat Jul  6 22:02:02 2019, MaxMem=   536870912 cpu:               0.0 elap:               0.3
 (Enter /home/zxli/Documents/Softwares/g16/l716.exe)
 Dipole        = 0.00000000D+00 0.00000000D+00 0.00000000D+00
 -------------------------------------------------------------------
 Center     Atomic                   Forces (Hartrees/Bohr)
 Number     Number              X              Y              Z
 -------------------------------------------------------------------
      1        6          -0.000695696   -0.002021567   -0.000261355
      2        8          -0.006654750    0.004770281   -0.007222063
      3        6           0.008410337   -0.000502824    0.007622774
      4        6           0.002758714    0.000644409    0.001747533
      5        6          -0.010256823    0.003131679   -0.007848771
      6        6           0.006923135   -0.004707066    0.005358649
      7        1           0.000234597   -0.001056407    0.000423148
      8        1           0.001190830   -0.001078602    0.000655168
      9        1           0.000155624    0.000701900   -0.000167611
     10        1          -0.000134726   -0.000132822    0.000588164
     11        1           0.000216444    0.000075116    0.000766565
     12        1          -0.000226809   -0.000266226   -0.000190890
     13        1          -0.000194537    0.000505778   -0.000160805
     14        1          -0.001726339   -0.000063646   -0.001310506
 -------------------------------------------------------------------
 Cartesian Forces:  Max     0.010256823 RMS     0.003620489
 Leave Link  716 at Sat Jul  6 22:02:02 2019, MaxMem=   536870912 cpu:               0.0 elap:               0.0
 (Enter /home/zxli/Documents/Softwares/g16/l123.exe)
 IRC-IRC-IRC-IRC-IRC-IRC-IRC-IRC-IRC-IRC-IRC-IRC-IRC-IRC-IRC-IRC-IRC-IRC
 Pt 20 Step number   1 out of a maximum of  10
 Using modified Bulirsch-Stoer corrector integration.
   Using distance weighted interpolants to fit PES.
 PreDWI: IReCr0= 2 IReCr1= 1 IReCr2= 1 IReCr3= 1
 Modified Bulirsch-Stoer Extrapolation Cycles:
    EPS =    0.000010000000000
    Cycle     1 NS=    48
      PEZero:  N= 2 I= 1 D=  1.44D-03 Err=  1.51D-04
    Cycle     2 NS=    64 Truncation Error =  0.000150940
      PEZero:  N= 3 I= 2 D=  1.44D-03 Err=  1.01D-04
      PEZero:  N= 3 I= 1 D=  2.88D-03 Err=  4.00D-07
    Cycle     3 NS=    96 Truncation Error =  0.000000400
 BS completed in    3 cycles and     208 integration steps.
 Maximum DWI energy   std dev =  0.000006037 at pt    35
 Maximum DWI gradient std dev =  0.028152013 at pt    39
 SUMMARY OF CORRECTOR INTEGRATION:
   Predictor End Point Energy =   -14.794625
   Old End Point Energy       =   -14.794625
   Corrected End Point Energy =   -14.794627
   Predictor End-Start Dist.  =     0.276893
   Old End-Start Dist.        =     0.276893
   New End-Start Dist.        =     0.276672
   New End-Old End Dist.      =     0.005192
 CORRECTOR INTEGRATION CONVERGENCE:
   Recorrection delta-x convergence threshold:    0.010000
   Delta-x Convergence Met
 Point Number:  10          Path Number:   2
                    CURRENT STRUCTURE
                Cartesian Coordinates (Ang):                
 ---------------------------------------------------------------------
 Center     Atomic                     Coordinates (Angstroms)
 Number     Number                        X           Y           Z
 ---------------------------------------------------------------------
      1          6                    1.289694   -0.062102    0.524036
      2          8                    0.789889   -1.101612   -0.217303
      3          6                   -0.574242   -0.940688   -0.887600
      4          6                   -0.887844    0.510241   -1.023088
      5          6                   -1.362344    1.223790    0.004267
      6          6                    0.676444    0.496204    1.580472
      7          1                    2.257990    0.315931    0.159362
      8          1                    1.123391    1.335121    2.097530
      9          1                   -0.221331    0.070524    2.006919
     10          1                   -0.469313   -1.453203   -1.852923
     11          1                   -1.307076   -1.482694   -0.269875
     12          1                   -0.474571    1.030436   -1.888470
     13          1                   -1.801344    0.743730    0.871166
     14          1                   -1.421926    2.305752   -0.032320
 ---------------------------------------------------------------------
   CHANGE IN THE REACTION COORDINATE =    0.27667
   NET REACTION COORDINATE UP TO THIS POINT =    2.76923
  # OF POINTS ALONG THE PATH =  20
  # OF STEPS =   1

 Maximum number of steps reached.
 Calculation of REVERSE path complete.
 Reaction path calculation complete.
 
 Energies reported relative to the TS energy of         -14.774870
 --------------------------------------------------------------------------
    Summary of reaction path following
 --------------------------------------------------------------------------
                        Energy    RxCoord
   1                   -0.01976  -2.76923
   2                   -0.01758  -2.49255
   3                   -0.01514  -2.21570
   4                   -0.01250  -1.93877
   5                   -0.00980  -1.66179
   6                   -0.00718  -1.38481
   7                   -0.00480  -1.10782
   8                   -0.00280  -0.83085
   9                   -0.00128  -0.55389
  10                   -0.00033  -0.27698
  11                    0.00000   0.00000
  12                   -0.00034   0.27699
  13                   -0.00138   0.55390
  14                   -0.00313   0.83085
  15                   -0.00557   1.10781
  16                   -0.00868   1.38477
  17                   -0.01244   1.66174
  18                   -0.01680   1.93872
  19                   -0.02164   2.21571
  20                   -0.02685   2.49270
  21                   -0.03224   2.76970
 --------------------------------------------------------------------------
 
 Total number of points:                   20
 Total number of gradient calculations:    21
 Total number of Hessian calculations:      1
 IRC-IRC-IRC-IRC-IRC-IRC-IRC-IRC-IRC-IRC-IRC-IRC-IRC-IRC-IRC-IRC-IRC-IRC
 Leave Link  123 at Sat Jul  6 22:02:02 2019, MaxMem=   536870912 cpu:               0.0 elap:               0.0
 (Enter /home/zxli/Documents/Softwares/g16/l202.exe)
                          Input orientation:                          
 ---------------------------------------------------------------------
 Center     Atomic      Atomic             Coordinates (Angstroms)
 Number     Number       Type             X           Y           Z
 ---------------------------------------------------------------------
      1          6           0        1.289697   -0.061894    0.524061
      2          8           0        0.789679   -1.101794   -0.217430
      3          6           0       -0.574042   -0.940853   -0.887588
      4          6           0       -0.887800    0.510201   -1.023166
      5          6           0       -1.362190    1.223862    0.004525
      6          6           0        0.676316    0.496363    1.580434
      7          1           0        2.258487    0.315925    0.159624
      8          1           0        1.123838    1.335122    2.097986
      9          1           0       -0.221975    0.070344    2.006740
     10          1           0       -0.469227   -1.453319   -1.853058
     11          1           0       -1.307004   -1.482609   -0.270383
     12          1           0       -0.474952    1.030705   -1.888723
     13          1           0       -1.800785    0.743383    0.871434
     14          1           0       -1.422524    2.306254   -0.032409
 ---------------------------------------------------------------------
                    Distance matrix (angstroms):
                    1          2          3          4          5
     1  C    0.000000
     2  O    1.371576   0.000000
     3  C    2.497768   1.527988   0.000000
     4  C    2.731793   2.462046   1.490766   0.000000
     5  C    2.992589   3.176237   2.470432   1.338099   0.000000
     6  C    1.343060   2.408168   3.117710   3.037331   2.677358
     7  H    1.101869   2.075933   3.270989   3.366876   3.736001
     8  H    2.111020   3.378073   4.120256   3.803784   3.251967
     9  H    2.121551   2.710034   3.086034   3.133230   2.576734
    10  H    3.268115   2.093727   1.098062   2.172403   3.378653
    11  H    3.064707   2.131643   1.100760   2.171107   2.720957
    12  H    3.182653   2.989994   2.213398   1.091126   2.099736
    13  H    3.212510   3.361667   2.726849   2.115993   1.083862
    14  H    3.643341   4.067292   3.463374   2.119749   1.084701
                    6          7          8          9         10
     6  C    0.000000
     7  H    2.134132   0.000000
     8  H    1.082429   2.466463   0.000000
     9  H    1.081738   3.102392   1.849108   0.000000
    10  H    4.111253   3.823813   5.091563   4.157009   0.000000
    11  H    3.357888   4.016510   4.411096   2.962134   1.790974
    12  H    3.694047   3.489745   4.306117   4.020065   2.484287
    13  H    2.588384   4.143318   3.226144   2.057801   3.744517
    14  H    3.206572   4.189049   3.459139   3.255572   4.284615
                   11         12         13         14
    11  H    0.000000
    12  H    3.102915   0.000000
    13  H    2.550021   3.075525   0.000000
    14  H    3.798086   2.443526   1.844609   0.000000
 Symmetry turned off by external request.
 Stoichiometry    C5H8O
 Framework group  C1[X(C5H8O)]
 Deg. of freedom    36
 Full point group                 C1      NOp   1
 Rotational constants (GHZ):           4.7998834           3.7487231           2.4106146
 Leave Link  202 at Sat Jul  6 22:02:02 2019, MaxMem=   536870912 cpu:               0.0 elap:               0.0
 (Enter /home/zxli/Documents/Softwares/g16/l601.exe)
 Leave Link  601 at Sat Jul  6 22:02:02 2019, MaxMem=   536870912 cpu:               0.0 elap:               0.0
 (Enter /home/zxli/Documents/Softwares/g16/l9999.exe)

 This type of calculation cannot be archived.


 THE SECRET OF SUCCESS IN LIFE IS TO EAT WHAT YOU LIKE, AND LET THE FOOD
 FIGHT IT OUT INSIDE YOU. -- FROM A FORTUNE COOKIE
 Job cpu time:       0 days  0 hours  0 minutes  2.9 seconds.
 Elapsed time:       0 days  0 hours  0 minutes  9.3 seconds.
 File lengths (MBytes):  RWF=      6 Int=      0 D2E=      0 Chk=      3 Scr=      1
 Normal termination of Gaussian 16 at Sat Jul  6 22:02:02 2019.
