 Fermi distribution function

Difference derivative step: 29


********************************************************************************
 iSCC Total electronic   Diff electronic      SCC error    
    4   -0.31911930E+01   -0.53290705E-14    0.39418959E-07
********************************************************************************

COMPONENT = q

Eigenvalues (H) and fillings (e)
       1      -0.57434   2.00000
       2      -0.35062   2.00000
       3      -0.32859   2.00000
       4      -0.32096   2.00000
       5       0.25282   0.00000
       6       0.36259   0.00000
       7       0.62800   0.00000
       8       1.16040   0.00000

Eigenvalues (eV) and fillings (e)
       1       -15.629   2.00000
       2        -9.541   2.00000
       3        -8.941   2.00000
       4        -8.734   2.00000
       5         6.879   0.00000
       6         9.867   0.00000
       7        17.089   0.00000
       8        31.576   0.00000

Fermi level:                        -0.0340710805 H           -0.9271 eV
Band energy:                        -3.1490068167 H          -85.6888 eV
TS:                                  0.0000000000 H            0.0000 eV
Band free energy (E-TS):            -3.1490068167 H          -85.6888 eV
Extrapolated E(0K):                 -3.1490068167 H          -85.6888 eV

Energy H0:                          -3.1924471655 H          -86.8709 eV
Energy SCC:                          0.0017064371 H            0.0464 eV
Total Electronic energy:            -3.1911929791 H          -86.8368 eV
Repulsive energy:                    0.0066562434 H            0.1811 eV
Total energy:                       -3.1845367357 H          -86.6557 eV
Total Mermin free energy:           -3.1845367357 H          -86.6557 eV

SCC converged

Total Forces
      0.076996242316     -0.022613413974     -0.089887340297
      0.006256884471      0.028250955688     -0.020180551128
      0.047849337830      0.058481147863      0.068492669910
      0.000801345528     -0.039832844304      0.006748233060
     -0.131903810146     -0.024285845273      0.034826988455

Maximal derivative component:        0.131904E+00 au
Max force for moved atoms::          0.131904E+00 au

Dipole moment:   -0.02883241    0.02953655    0.04967263 au
Dipole moment:   -0.07328468    0.07507442    0.12625525 Debye

Second derivatives completed

