 Fermi distribution function

Calculation with static geometry


********************************************************************************
 iSCC Total electronic   Diff electronic      SCC error    
    8   -0.31911996E+01   -0.19362290E-12    0.83923456E-05
********************************************************************************

COMPONENT = q

Eigenvalues (H) and fillings (e)
       1      -0.57434   2.00000
       2      -0.35062   2.00000
       3      -0.32859   2.00000
       4      -0.32096   2.00000
       5       0.25281   0.00000
       6       0.36260   0.00000
       7       0.62802   0.00000
       8       1.16046   0.00000

Eigenvalues (eV) and fillings (e)
       1       -15.629   2.00000
       2        -9.541   2.00000
       3        -8.941   2.00000
       4        -8.734   2.00000
       5         6.879   0.00000
       6         9.867   0.00000
       7        17.089   0.00000
       8        31.578   0.00000

Fermi level:                        -0.0340734703 H           -0.9272 eV
Band energy:                        -3.1490145826 H          -85.6890 eV
TS:                                  0.0000000000 H            0.0000 eV
Band free energy (E-TS):            -3.1490145826 H          -85.6890 eV
Extrapolated E(0K):                 -3.1490145826 H          -85.6890 eV

Energy H0:                          -3.1924536946 H          -86.8711 eV
Energy SCC:                          0.0017063817 H            0.0464 eV
Total Electronic energy:            -3.1911995522 H          -86.8370 eV
Repulsive energy:                    0.0066662997 H            0.1814 eV
Total energy:                       -3.1845332525 H          -86.6556 eV
Total Mermin free energy:           -3.1845332525 H          -86.6556 eV

SCC converged

Dipole moment:   -0.02883551    0.02953266    0.04966801 au
Dipole moment:   -0.07329257    0.07506454    0.12624351 Debye


