 Entering Gaussian System, Link 0=g16
 Input=ts.gjf
 Output=ts.log
 Initial command:
 /home/zxli/Documents/Softwares/g16/l1.exe "/scratch/zxli/gaussian/Gau-12904.inp" -scrdir="/scratch/zxli/gaussian/"
 Entering Link 1 = /home/zxli/Documents/Softwares/g16/l1.exe PID=     12906.
  
 Copyright (c) 1988,1990,1992,1993,1995,1998,2003,2009,2016,
            Gaussian, Inc.  All Rights Reserved.
  
 This is part of the Gaussian(R) 16 program.  It is based on
 the Gaussian(R) 09 system (copyright 2009, Gaussian, Inc.),
 the Gaussian(R) 03 system (copyright 2003, Gaussian, Inc.),
 the Gaussian(R) 98 system (copyright 1998, Gaussian, Inc.),
 the Gaussian(R) 94 system (copyright 1995, Gaussian, Inc.),
 the Gaussian 92(TM) system (copyright 1992, Gaussian, Inc.),
 the Gaussian 90(TM) system (copyright 1990, Gaussian, Inc.),
 the Gaussian 88(TM) system (copyright 1988, Gaussian, Inc.),
 the Gaussian 86(TM) system (copyright 1986, Carnegie Mellon
 University), and the Gaussian 82(TM) system (copyright 1983,
 Carnegie Mellon University). Gaussian is a federally registered
 trademark of Gaussian, Inc.
  
 This software contains proprietary and confidential information,
 including trade secrets, belonging to Gaussian, Inc.
  
 This software is provided under written license and may be
 used, copied, transmitted, or stored only in accord with that
 written license.
  
 The following legend is applicable only to US Government
 contracts under FAR:
  
                    RESTRICTED RIGHTS LEGEND
  
 Use, reproduction and disclosure by the US Government is
 subject to restrictions as set forth in subparagraphs (a)
 and (c) of the Commercial Computer Software - Restricted
 Rights clause in FAR 52.227-19.
  
 Gaussian, Inc.
 340 Quinnipiac St., Bldg. 40, Wallingford CT 06492
  
  
 ---------------------------------------------------------------
 Warning -- This program may not be used in any manner that
 competes with the business of Gaussian, Inc. or will provide
 assistance to any competitor of Gaussian, Inc.  The licensee
 of this program is prohibited from giving any competitor of
 Gaussian, Inc. access to this program.  By using this program,
 the user acknowledges that Gaussian, Inc. is engaged in the
 business of creating and licensing software in the field of
 computational chemistry and represents and warrants to the
 licensee that it is not a competitor of Gaussian, Inc. and that
 it will not use this program in any manner prohibited above.
 ---------------------------------------------------------------
  

 Cite this work as:
 Gaussian 16, Revision A.03,
 M. J. Frisch, G. W. Trucks, H. B. Schlegel, G. E. Scuseria, 
 M. A. Robb, J. R. Cheeseman, G. Scalmani, V. Barone, 
 G. A. Petersson, H. Nakatsuji, X. Li, M. Caricato, A. V. Marenich, 
 J. Bloino, B. G. Janesko, R. Gomperts, B. Mennucci, H. P. Hratchian, 
 J. V. Ortiz, A. F. Izmaylov, J. L. Sonnenberg, D. Williams-Young, 
 F. Ding, F. Lipparini, F. Egidi, J. Goings, B. Peng, A. Petrone, 
 T. Henderson, D. Ranasinghe, V. G. Zakrzewski, J. Gao, N. Rega, 
 G. Zheng, W. Liang, M. Hada, M. Ehara, K. Toyota, R. Fukuda, 
 J. Hasegawa, M. Ishida, T. Nakajima, Y. Honda, O. Kitao, H. Nakai, 
 T. Vreven, K. Throssell, J. A. Montgomery, Jr., J. E. Peralta, 
 F. Ogliaro, M. J. Bearpark, J. J. Heyd, E. N. Brothers, K. N. Kudin, 
 V. N. Staroverov, T. A. Keith, R. Kobayashi, J. Normand, 
 K. Raghavachari, A. P. Rendell, J. C. Burant, S. S. Iyengar, 
 J. Tomasi, M. Cossi, J. M. Millam, M. Klene, C. Adamo, R. Cammi, 
 J. W. Ochterski, R. L. Martin, K. Morokuma, O. Farkas, 
 J. B. Foresman, and D. J. Fox, Gaussian, Inc., Wallingford CT, 2016.
 
 ******************************************
 Gaussian 16:  ES64L-G16RevA.03 25-Dec-2016
                 6-Jul-2019 
 ******************************************
 %chk=claisen.chk
 ----------------------------------------------------------------
 #p opt=(nomicro,ts,calcfc,noeigen) external='python3 Gaudftb.py'
 ----------------------------------------------------------------
 1/5=1,10=4,11=1,18=20,26=1,38=1/1,3;
 2/9=110,12=2,17=6,18=5,40=1/2;
 3/11=9,25=1,30=1,41=9900000,43=2,71=2,140=1/1;
 4/20=17,22=2,24=3,113=1,114=1/2;
 6/7=2,8=2,9=2,10=2/1;
 7/25=1,44=-1/16;
 1/5=1,10=4,11=1,18=20,26=1/3(2);
 2/9=110/2;
 99//99;
 2/9=110/2;
 3/11=9,25=1,30=1,41=9900000,43=2,71=1/1;
 4/16=2,20=17,22=1,24=3,113=1,114=1/2;
 7/44=-1/16;
 1/5=1,11=1,18=20,26=1/3(-4);
 2/9=110/2;
 6/7=2,8=2,9=2,10=2/1;
 99//99;
 Leave Link    1 at Sat Jul  6 20:30:23 2019, MaxMem=           0 cpu:               0.0 elap:               0.0
 (Enter /home/zxli/Documents/Softwares/g16/l101.exe)
 --
 ts
 --
 Symbolic Z-matrix:
 Charge =  0 Multiplicity = 1
 C                     1.33678  -0.2598    0.56812 
 O                     0.94548  -1.35655  -0.02548 
 C                    -0.7915   -1.08863  -1.05258 
 C                    -0.9066    0.30192  -1.04423 
 C                    -1.21721   0.98655   0.12325 
 C                     0.61119   0.37386   1.56319 
 H                     2.20109   0.26885   0.14272 
 H                     0.98727   1.28682   2.01461 
 H                    -0.1335   -0.17852   2.1234 
 H                    -0.46633  -1.61669  -1.94061 
 H                    -1.31689  -1.68762  -0.31796 
 H                    -0.45099   0.85572  -1.86258 
 H                    -1.82055   0.51525   0.8909 
 H                    -1.16196   2.06931   0.16909 
 
 Add virtual bond connecting atoms C3         and O2         Dist= 3.85D+00.
 ITRead=  0  0  0  0  0  0  0  0  0  0  0  0  0  0
 MicOpt= -1 -1 -1 -1 -1 -1 -1 -1 -1 -1 -1 -1 -1 -1
 NAtoms=     14 NQM=       14 NQMF=       0 NMMI=      0 NMMIF=      0
                NMic=       0 NMicF=      0.
                    Isotopes and Nuclear Properties:
 (Nuclear quadrupole moments (NQMom) in fm**2, nuclear magnetic moments (NMagM)
  in nuclear magnetons)

  Atom         1           2           3           4           5           6           7           8           9          10
 IAtWgt=          12          16          12          12          12          12           1           1           1           1
 AtmWgt=  12.0000000  15.9949146  12.0000000  12.0000000  12.0000000  12.0000000   1.0078250   1.0078250   1.0078250   1.0078250
 NucSpn=           0           0           0           0           0           0           1           1           1           1
 AtZEff=  -0.0000000  -0.0000000  -0.0000000  -0.0000000  -0.0000000  -0.0000000  -0.0000000  -0.0000000  -0.0000000  -0.0000000
 NQMom=    0.0000000   0.0000000   0.0000000   0.0000000   0.0000000   0.0000000   0.0000000   0.0000000   0.0000000   0.0000000
 NMagM=    0.0000000   0.0000000   0.0000000   0.0000000   0.0000000   0.0000000   2.7928460   2.7928460   2.7928460   2.7928460
 AtZNuc=   6.0000000   8.0000000   6.0000000   6.0000000   6.0000000   6.0000000   1.0000000   1.0000000   1.0000000   1.0000000

  Atom        11          12          13          14
 IAtWgt=           1           1           1           1
 AtmWgt=   1.0078250   1.0078250   1.0078250   1.0078250
 NucSpn=           1           1           1           1
 AtZEff=  -0.0000000  -0.0000000  -0.0000000  -0.0000000
 NQMom=    0.0000000   0.0000000   0.0000000   0.0000000
 NMagM=    2.7928460   2.7928460   2.7928460   2.7928460
 AtZNuc=   1.0000000   1.0000000   1.0000000   1.0000000
 Leave Link  101 at Sat Jul  6 20:30:23 2019, MaxMem=   536870912 cpu:               0.2 elap:               0.2
 (Enter /home/zxli/Documents/Softwares/g16/l103.exe)

 GradGradGradGradGradGradGradGradGradGradGradGradGradGradGradGradGradGrad
 Berny optimization.
 Initialization pass.
                           ----------------------------
                           !    Initial Parameters    !
                           ! (Angstroms and Degrees)  !
 --------------------------                            --------------------------
 ! Name  Definition              Value          Derivative Info.                !
 --------------------------------------------------------------------------------
 ! R1    R(1,2)                  1.307          calculate D2E/DX2 analytically  !
 ! R2    R(1,6)                  1.385          calculate D2E/DX2 analytically  !
 ! R3    R(1,7)                  1.0989         calculate D2E/DX2 analytically  !
 ! R4    R(2,3)                  2.0356         calculate D2E/DX2 analytically  !
 ! R5    R(3,4)                  1.3953         calculate D2E/DX2 analytically  !
 ! R6    R(3,10)                 1.0831         calculate D2E/DX2 analytically  !
 ! R7    R(3,11)                 1.0837         calculate D2E/DX2 analytically  !
 ! R8    R(4,5)                  1.3886         calculate D2E/DX2 analytically  !
 ! R9    R(4,12)                 1.0881         calculate D2E/DX2 analytically  !
 ! R10   R(5,13)                 1.0842         calculate D2E/DX2 analytically  !
 ! R11   R(5,14)                 1.0851         calculate D2E/DX2 analytically  !
 ! R12   R(6,8)                  1.0857         calculate D2E/DX2 analytically  !
 ! R13   R(6,9)                  1.0833         calculate D2E/DX2 analytically  !
 ! A1    A(2,1,6)              123.5988         calculate D2E/DX2 analytically  !
 ! A2    A(2,1,7)              117.6035         calculate D2E/DX2 analytically  !
 ! A3    A(6,1,7)              118.0413         calculate D2E/DX2 analytically  !
 ! A4    A(1,2,3)              111.9729         calculate D2E/DX2 analytically  !
 ! A5    A(2,3,4)              101.4508         calculate D2E/DX2 analytically  !
 ! A6    A(2,3,10)              95.3557         calculate D2E/DX2 analytically  !
 ! A7    A(2,3,11)              89.9369         calculate D2E/DX2 analytically  !
 ! A8    A(4,3,10)             121.033          calculate D2E/DX2 analytically  !
 ! A9    A(4,3,11)             120.449          calculate D2E/DX2 analytically  !
 ! A10   A(10,3,11)            115.5839         calculate D2E/DX2 analytically  !
 ! A11   A(3,4,5)              120.9863         calculate D2E/DX2 analytically  !
 ! A12   A(3,4,12)             117.9162         calculate D2E/DX2 analytically  !
 ! A13   A(5,4,12)             118.3626         calculate D2E/DX2 analytically  !
 ! A14   A(4,5,13)             120.3614         calculate D2E/DX2 analytically  !
 ! A15   A(4,5,14)             121.0696         calculate D2E/DX2 analytically  !
 ! A16   A(13,5,14)            115.6067         calculate D2E/DX2 analytically  !
 ! A17   A(1,6,8)              120.1321         calculate D2E/DX2 analytically  !
 ! A18   A(1,6,9)              119.8937         calculate D2E/DX2 analytically  !
 ! A19   A(8,6,9)              116.8653         calculate D2E/DX2 analytically  !
 ! D1    D(6,1,2,3)             62.9069         calculate D2E/DX2 analytically  !
 ! D2    D(7,1,2,3)           -106.9174         calculate D2E/DX2 analytically  !
 ! D3    D(2,1,6,8)           -179.6531         calculate D2E/DX2 analytically  !
 ! D4    D(2,1,6,9)             20.8976         calculate D2E/DX2 analytically  !
 ! D5    D(7,1,6,8)             -9.8704         calculate D2E/DX2 analytically  !
 ! D6    D(7,1,6,9)           -169.3197         calculate D2E/DX2 analytically  !
 ! D7    D(1,2,3,4)             12.1495         calculate D2E/DX2 analytically  !
 ! D8    D(1,2,3,10)           135.3313         calculate D2E/DX2 analytically  !
 ! D9    D(1,2,3,11)          -108.9711         calculate D2E/DX2 analytically  !
 ! D10   D(2,3,4,5)            -71.2086         calculate D2E/DX2 analytically  !
 ! D11   D(2,3,4,12)            89.7507         calculate D2E/DX2 analytically  !
 ! D12   D(10,3,4,5)          -174.683          calculate D2E/DX2 analytically  !
 ! D13   D(10,3,4,12)          -13.7237         calculate D2E/DX2 analytically  !
 ! D14   D(11,3,4,5)            25.5548         calculate D2E/DX2 analytically  !
 ! D15   D(11,3,4,12)         -173.4859         calculate D2E/DX2 analytically  !
 ! D16   D(3,4,5,13)           -29.5803         calculate D2E/DX2 analytically  !
 ! D17   D(3,4,5,14)           170.7469         calculate D2E/DX2 analytically  !
 ! D18   D(12,4,5,13)          169.543          calculate D2E/DX2 analytically  !
 ! D19   D(12,4,5,14)            9.8703         calculate D2E/DX2 analytically  !
 --------------------------------------------------------------------------------
 Trust Radius=3.00D-01 FncErr=1.00D-07 GrdErr=1.00D-07 EigMax=2.50D+02 EigMin=1.00D-04
 Number of steps in this run=     61 maximum allowed number of steps=    100.
 Search for a saddle point of order  1.
 GradGradGradGradGradGradGradGradGradGradGradGradGradGradGradGradGradGrad

 Leave Link  103 at Sat Jul  6 20:30:23 2019, MaxMem=   536870912 cpu:               0.0 elap:               0.0
 (Enter /home/zxli/Documents/Softwares/g16/l202.exe)
                          Input orientation:                          
 ---------------------------------------------------------------------
 Center     Atomic      Atomic             Coordinates (Angstroms)
 Number     Number       Type             X           Y           Z
 ---------------------------------------------------------------------
      1          6           0        1.336776   -0.259803    0.568122
      2          8           0        0.945478   -1.356548   -0.025481
      3          6           0       -0.791504   -1.088626   -1.052581
      4          6           0       -0.906596    0.301915   -1.044228
      5          6           0       -1.217214    0.986548    0.123253
      6          6           0        0.611191    0.373861    1.563191
      7          1           0        2.201091    0.268849    0.142719
      8          1           0        0.987270    1.286824    2.014609
      9          1           0       -0.133500   -0.178520    2.123397
     10          1           0       -0.466332   -1.616690   -1.940614
     11          1           0       -1.316890   -1.687621   -0.317957
     12          1           0       -0.450992    0.855719   -1.862577
     13          1           0       -1.820554    0.515247    0.890896
     14          1           0       -1.161960    2.069307    0.169086
 ---------------------------------------------------------------------
                    Distance matrix (angstroms):
                    1          2          3          4          5
     1  C    0.000000
     2  O    1.307030   0.000000
     3  C    2.800572   2.035638   0.000000
     4  C    2.819205   2.686731   1.395321   0.000000
     5  C    2.876485   3.192093   2.422842   1.388603   0.000000
     6  C    1.384979   2.372750   3.308880   3.017861   2.406631
     7  H    1.098854   2.060769   3.496728   3.326809   3.492890
     8  H    2.146284   3.339331   4.267840   3.730048   2.920127
     9  H    2.141775   2.677615   3.368694   3.295807   2.555855
    10  H    3.374329   2.393453   1.083139   2.162958   3.405909
    11  H    3.140978   2.305094   1.083743   2.157328   2.712154
    12  H    3.216955   3.196745   2.133663   1.088103   2.132541
    13  H    3.267050   3.463278   2.721848   2.150706   1.084168
    14  H    3.439137   4.026864   3.406207   2.158939   1.085136
                    6          7          8          9         10
     6  C    0.000000
     7  H    2.134608   0.000000
     8  H    1.085686   2.452266   0.000000
     9  H    1.083291   3.094114   1.848024   0.000000
    10  H    4.171331   3.874362   5.117337   4.323806   0.000000
    11  H    3.392038   4.051689   4.426888   3.104514   1.833438
    12  H    3.618882   3.376266   4.157766   4.130186   2.473688
    13  H    2.526926   4.098062   3.121208   2.201482   3.794275
    14  H    2.821725   3.814768   2.938950   3.151157   4.303639
                   11         12         13         14
    11  H    0.000000
    12  H    3.099066   0.000000
    13  H    2.562739   3.094064   0.000000
    14  H    3.791533   2.471017   1.835717   0.000000
 Stoichiometry    C5H8O
 Framework group  C1[X(C5H8O)]
 Deg. of freedom    36
 Full point group                 C1      NOp   1
 Largest Abelian subgroup         C1      NOp   1
 Largest concise Abelian subgroup C1      NOp   1
                         Standard orientation:                         
 ---------------------------------------------------------------------
 Center     Atomic      Atomic             Coordinates (Angstroms)
 Number     Number       Type             X           Y           Z
 ---------------------------------------------------------------------
      1          6           0       -1.353476   -0.345479    0.380559
      2          8           0       -0.690607   -1.361539   -0.105810
      3          6           0        1.293130   -0.951168   -0.306332
      4          6           0        1.404648    0.237075    0.416554
      5          6           0        0.870161    1.422735   -0.070017
      6          6           0       -1.465459    0.875586   -0.263356
      7          1           0       -1.699190   -0.414262    1.421344
      8          1           0       -2.026097    1.684257    0.195393
      9          1           0       -1.299334    0.939710   -1.331911
     10          1           0        1.633455   -1.891693    0.109339
     11          1           0        1.178582   -0.929849   -1.383793
     12          1           0        1.626021    0.167760    1.479643
     13          1           0        0.794354    1.591993   -1.138205
     14          1           0        0.823042    2.311897    0.550219
 ---------------------------------------------------------------------
 Rotational constants (GHZ):           4.7084440           3.5770226           2.3250500
 Leave Link  202 at Sat Jul  6 20:30:23 2019, MaxMem=   536870912 cpu:               0.0 elap:               0.0
 (Enter /home/zxli/Documents/Softwares/g16/l301.exe)
 Standard basis: STO-3G (5D, 7F)
 Ernie: Thresh=  0.10000D-02 Tol=  0.10000D-05 Strict=F.
 There are    38 symmetry adapted cartesian basis functions of A   symmetry.
 There are    38 symmetry adapted basis functions of A   symmetry.
    38 basis functions,   114 primitive gaussians,    38 cartesian basis functions
    23 alpha electrons       23 beta electrons
       nuclear repulsion energy       225.4267390052 Hartrees.
 IExCor=    0 DFT=F Ex=HF Corr=None ExCW=0 ScaHFX=  1.000000
 ScaDFX=  1.000000  1.000000  1.000000  1.000000 ScalE2=  1.000000  1.000000
 IRadAn=      5 IRanWt=     -1 IRanGd=            0 ICorTp=0 IEmpDi=  4
 NAtoms=   14 NActive=   14 NUniq=   14 SFac= 1.00D+00 NAtFMM=   60 NAOKFM=F Big=F
 Integral buffers will be    131072 words long.
 Raffenetti 1 integral format.
 Two-electron integral symmetry is turned on.
 Leave Link  301 at Sat Jul  6 20:30:23 2019, MaxMem=   536870912 cpu:               0.0 elap:               0.0
 (Enter /home/zxli/Documents/Softwares/g16/l402.exe)
 External calculation of energy, first and second derivatives.
 Running external command "python3 Gaudftb.py R"
         input file       "/scratch/zxli/gaussian/Gau-12906.EIn"
         output file      "/scratch/zxli/gaussian/Gau-12906.EOu"
         message file     "/scratch/zxli/gaussian/Gau-12906.EMs"
         fchk file        "/scratch/zxli/gaussian/Gau-12906.EFC"
         mat. el file     "/scratch/zxli/gaussian/Gau-12906.EUF"
 Recovered energy= -14.7730737324     dipole=      0.000000000000      0.000000000000      0.000000000000
 Energy=    -14.7730737     NIter=   0.
 Dipole moment=       0.000000       0.000000       0.000000
 Leave Link  402 at Sat Jul  6 20:30:24 2019, MaxMem=   536870912 cpu:               0.0 elap:               0.8
 (Enter /home/zxli/Documents/Softwares/g16/l601.exe)
 Leave Link  601 at Sat Jul  6 20:30:24 2019, MaxMem=   536870912 cpu:               0.0 elap:               0.0
 (Enter /home/zxli/Documents/Softwares/g16/l716.exe)
 Dipole        = 0.00000000D+00 0.00000000D+00 0.00000000D+00
 ***** Axes restored to original set *****
 -------------------------------------------------------------------
 Center     Atomic                   Forces (Hartrees/Bohr)
 Number     Number              X              Y              Z
 -------------------------------------------------------------------
      1        6          -0.011278472   -0.018790650   -0.006475616
      2        8           0.002092409    0.016818573    0.006337851
      3        6           0.007039361   -0.004330959    0.005202160
      4        6          -0.001788729    0.004611024    0.006541302
      5        6           0.005618325   -0.003305031   -0.000472228
      6        6          -0.005900008    0.000380563   -0.003226696
      7        1           0.007856001    0.003460470   -0.004239642
      8        1          -0.000259424   -0.000628562   -0.000283807
      9        1           0.000199682    0.000157408    0.000949820
     10        1          -0.000418666    0.000718486   -0.002024727
     11        1          -0.002558988    0.000281151    0.000630906
     12        1           0.000983491    0.001212636   -0.000987692
     13        1          -0.001088414   -0.000801562   -0.000382697
     14        1          -0.000496568    0.000216453   -0.001568934
 -------------------------------------------------------------------
 Cartesian Forces:  Max     0.018790650 RMS     0.005375145
 FormGI is forming the generalized inverse of G from B-inverse, IUseBI=4.
 Leave Link  716 at Sat Jul  6 20:30:24 2019, MaxMem=   536870912 cpu:               0.0 elap:               0.1
 (Enter /home/zxli/Documents/Softwares/g16/l103.exe)

 GradGradGradGradGradGradGradGradGradGradGradGradGradGradGradGradGradGrad
 Berny optimization.
 Red2BG is reusing G-inverse.
 Internal  Forces:  Max     0.022223124 RMS     0.005630352
 Search for a saddle point.
 Step number   1 out of a maximum of   61
 All quantities printed in internal units (Hartrees-Bohrs-Radians)
 Swapping is turned off.
 Second derivative matrix not updated -- analytic derivatives used.
 ITU=  0
     Eigenvalues ---   -0.07587   0.00701   0.01421   0.01691   0.02010
     Eigenvalues ---    0.02475   0.03100   0.03389   0.04170   0.04825
     Eigenvalues ---    0.06376   0.07050   0.08861   0.09009   0.09737
     Eigenvalues ---    0.10177   0.11163   0.12427   0.13585   0.14328
     Eigenvalues ---    0.18182   0.19570   0.27218   0.31491   0.31633
     Eigenvalues ---    0.31655   0.31748   0.32186   0.32344   0.32618
     Eigenvalues ---    0.33448   0.34624   0.49714   0.59711   0.65447
     Eigenvalues ---    0.95306
 Eigenvectors required to have negative eigenvalues:
                          R4        D4        D16       A4        R1
   1                    0.64671   0.28337  -0.27590  -0.22188  -0.21381
                          D18       A5        R8        R2        R5
   1                   -0.19925  -0.19791   0.17418   0.16596  -0.16058
 RFO step:  Lambda0=1.095843702D-03 Lambda=-4.38655301D-03.
 Linear search not attempted -- option 19 set.
 Iteration  1 RMS(Cart)=  0.03593453 RMS(Int)=  0.00124332
 Iteration  2 RMS(Cart)=  0.00128606 RMS(Int)=  0.00084828
 Iteration  3 RMS(Cart)=  0.00000168 RMS(Int)=  0.00084828
 Iteration  4 RMS(Cart)=  0.00000001 RMS(Int)=  0.00084828
 ITry= 1 IFail=0 DXMaxC= 9.04D-02 DCOld= 1.00D+10 DXMaxT= 3.00D-01 DXLimC= 3.00D+00 Rises=F
 Variable       Old X    -DE/DX   Delta X   Delta X   Delta X     New X
                                 (Linear)    (Quad)   (Total)
    R1        2.46993  -0.02178   0.00000  -0.02664  -0.02664   2.44329
    R2        2.61723   0.00124   0.00000   0.00082   0.00082   2.61805
    R3        2.07653   0.00949   0.00000   0.03203   0.03203   2.10856
    R4        3.84680  -0.00990   0.00000  -0.19019  -0.19019   3.65661
    R5        2.63677   0.00168   0.00000   0.02074   0.02074   2.65751
    R6        2.04684   0.00118   0.00000   0.00555   0.00555   2.05239
    R7        2.04798   0.00151   0.00000   0.00731   0.00731   2.05528
    R8        2.62408  -0.00486   0.00000  -0.01775  -0.01775   2.60633
    R9        2.05622   0.00177   0.00000   0.00555   0.00555   2.06177
   R10        2.04878   0.00068   0.00000   0.00271   0.00271   2.05149
   R11        2.05061   0.00012   0.00000   0.00103   0.00103   2.05164
   R12        2.05165  -0.00074   0.00000  -0.00188  -0.00188   2.04977
   R13        2.04712   0.00027   0.00000   0.00036   0.00036   2.04748
    A1        2.15721  -0.00624   0.00000  -0.00706  -0.00707   2.15014
    A2        2.05257   0.00184   0.00000  -0.00611  -0.00611   2.04645
    A3        2.06021   0.00383   0.00000   0.01174   0.01172   2.07193
    A4        1.95430  -0.02222   0.00000   0.01749   0.01749   1.97179
    A5        1.77065  -0.01324   0.00000   0.02176   0.02225   1.79290
    A6        1.66427   0.00674   0.00000   0.02650   0.02695   1.69122
    A7        1.56969   0.00534   0.00000   0.08135   0.08171   1.65140
    A8        2.11242   0.00145   0.00000  -0.02319  -0.02566   2.08676
    A9        2.10223  -0.00155   0.00000  -0.02166  -0.02492   2.07731
   A10        2.01732   0.00075   0.00000   0.00181  -0.00190   2.01542
   A11        2.11161  -0.00282   0.00000  -0.00663  -0.00690   2.10471
   A12        2.05803   0.00174   0.00000  -0.00347  -0.00374   2.05429
   A13        2.06582   0.00064   0.00000  -0.00206  -0.00234   2.06348
   A14        2.10070  -0.00061   0.00000  -0.00719  -0.00771   2.09300
   A15        2.11306  -0.00146   0.00000  -0.01474  -0.01525   2.09781
   A16        2.01772   0.00141   0.00000   0.00457   0.00401   2.02173
   A17        2.09670  -0.00042   0.00000  -0.00473  -0.00505   2.09165
   A18        2.09254   0.00076   0.00000  -0.00095  -0.00128   2.09127
   A19        2.03968  -0.00048   0.00000  -0.00917  -0.00952   2.03016
    D1        1.09793  -0.00663   0.00000  -0.05082  -0.05078   1.04715
    D2       -1.86606  -0.00326   0.00000  -0.04252  -0.04255  -1.90861
    D3       -3.13554   0.00184   0.00000  -0.00158  -0.00151  -3.13704
    D4        0.36473   0.00237   0.00000   0.04762   0.04758   0.41231
    D5       -0.17227  -0.00173   0.00000  -0.01161  -0.01157  -0.18384
    D6       -2.95519  -0.00121   0.00000   0.03758   0.03751  -2.91767
    D7        0.21205  -0.00243   0.00000   0.01833   0.01912   0.23116
    D8        2.36198  -0.00210   0.00000   0.00735   0.00664   2.36862
    D9       -1.90190  -0.00050   0.00000   0.01876   0.01868  -1.88322
   D10       -1.24282   0.00211   0.00000  -0.01119  -0.01114  -1.25396
   D11        1.56644   0.00080   0.00000  -0.05253  -0.05243   1.51401
   D12       -3.04879   0.00222   0.00000  -0.04984  -0.04903  -3.09783
   D13       -0.23952   0.00090   0.00000  -0.09118  -0.09033  -0.32985
   D14        0.44602  -0.00010   0.00000   0.09324   0.09231   0.53833
   D15       -3.02790  -0.00142   0.00000   0.05190   0.05102  -2.97688
   D16       -0.51627  -0.00145   0.00000  -0.04846  -0.04836  -0.56463
   D17        2.98010   0.00047   0.00000   0.00816   0.00807   2.98817
   D18        2.95908  -0.00033   0.00000  -0.00667  -0.00659   2.95250
   D19        0.17227   0.00159   0.00000   0.04995   0.04985   0.22211
         Item               Value     Threshold  Converged?
 Maximum Force            0.022223     0.000450     NO 
 RMS     Force            0.005630     0.000300     NO 
 Maximum Displacement     0.090354     0.001800     NO 
 RMS     Displacement     0.035484     0.001200     NO 
 Predicted change in Energy=-1.798066D-03
 GradGradGradGradGradGradGradGradGradGradGradGradGradGradGradGradGradGrad

 Leave Link  103 at Sat Jul  6 20:30:24 2019, MaxMem=   536870912 cpu:               0.0 elap:               0.0
 (Enter /home/zxli/Documents/Softwares/g16/l202.exe)
                          Input orientation:                          
 ---------------------------------------------------------------------
 Center     Atomic      Atomic             Coordinates (Angstroms)
 Number     Number       Type             X           Y           Z
 ---------------------------------------------------------------------
      1          6           0        1.326083   -0.265167    0.544091
      2          8           0        0.926093   -1.337062   -0.058173
      3          6           0       -0.743690   -1.093012   -1.004992
      4          6           0       -0.892318    0.305366   -1.015538
      5          6           0       -1.209731    0.986219    0.141144
      6          6           0        0.586958    0.373551    1.526487
      7          1           0        2.221255    0.252571    0.125012
      8          1           0        0.973296    1.273115    1.993487
      9          1           0       -0.151533   -0.182123    2.091987
     10          1           0       -0.453487   -1.607914   -1.916156
     11          1           0       -1.329686   -1.680611   -0.301976
     12          1           0       -0.418599    0.859663   -1.827150
     13          1           0       -1.834835    0.514459    0.892953
     14          1           0       -1.183541    2.071407    0.160659
 ---------------------------------------------------------------------
                    Distance matrix (angstroms):
                    1          2          3          4          5
     1  C    0.000000
     2  O    1.292931   0.000000
     3  C    2.714581   1.934994   0.000000
     4  C    2.771146   2.630728   1.406294   0.000000
     5  C    2.856342   3.162136   2.419509   1.379212   0.000000
     6  C    1.385413   2.356344   3.214003   2.941903   2.350028
     7  H    1.115802   2.058625   3.446506   3.316319   3.508585
     8  H    2.142783   3.320325   4.187777   3.670325   2.877342
     9  H    2.141548   2.668023   3.282018   3.231581   2.508106
    10  H    3.320038   2.329958   1.086077   2.159705   3.396161
    11  H    3.126087   2.294778   1.087610   2.155125   2.706054
    12  H    3.151499   3.124592   2.143495   1.091041   2.125109
    13  H    3.274283   3.457672   2.716018   2.138783   1.085601
    14  H    3.450335   4.014487   3.400847   2.141764   1.085679
                    6          7          8          9         10
     6  C    0.000000
     7  H    2.156315   0.000000
     8  H    1.084694   2.467815   0.000000
     9  H    1.083482   3.112567   1.841917   0.000000
    10  H    4.106157   3.844739   5.061753   4.264887   0.000000
    11  H    3.352072   4.065550   4.392878   3.060158   1.838094
    12  H    3.534732   3.338911   4.087247   4.064022   2.469428
    13  H    2.507250   4.136446   3.110038   2.180921   3.782021
    14  H    2.807644   3.860320   2.940829   3.142207   4.287603
                   11         12         13         14
    11  H    0.000000
    12  H    3.099876   0.000000
    13  H    2.549778   3.086073   0.000000
    14  H    3.783256   2.450479   1.839707   0.000000
 Stoichiometry    C5H8O
 Framework group  C1[X(C5H8O)]
 Deg. of freedom    36
 Full point group                 C1      NOp   1
 RotChk:  IX=0 Diff= 5.76D-02
 Largest Abelian subgroup         C1      NOp   1
 Largest concise Abelian subgroup C1      NOp   1
                         Standard orientation:                         
 ---------------------------------------------------------------------
 Center     Atomic      Atomic             Coordinates (Angstroms)
 Number     Number       Type             X           Y           Z
 ---------------------------------------------------------------------
      1          6           0       -1.346429   -0.307567    0.368752
      2          8           0       -0.705699   -1.326391   -0.103617
      3          6           0        1.190136   -0.997653   -0.308420
      4          6           0        1.379234    0.189700    0.421028
      5          6           0        0.908029    1.392659   -0.061755
      6          6           0       -1.385812    0.923908   -0.264720
      7          1           0       -1.732550   -0.385982    1.412675
      8          1           0       -1.937323    1.743725    0.182826
      9          1           0       -1.215496    0.986020   -1.332928
     10          1           0        1.531772   -1.941499    0.106312
     11          1           0        1.153883   -0.949655   -1.394365
     12          1           0        1.569518    0.102299    1.491786
     13          1           0        0.875799    1.571305   -1.132071
     14          1           0        0.929033    2.278631    0.565392
 ---------------------------------------------------------------------
 Rotational constants (GHZ):           4.7395590           3.7472908           2.4034024
 Leave Link  202 at Sat Jul  6 20:30:24 2019, MaxMem=   536870912 cpu:               0.0 elap:               0.0
 (Enter /home/zxli/Documents/Softwares/g16/l301.exe)
 Standard basis: STO-3G (5D, 7F)
 Ernie: Thresh=  0.10000D-02 Tol=  0.10000D-05 Strict=F.
 There are    38 symmetry adapted cartesian basis functions of A   symmetry.
 There are    38 symmetry adapted basis functions of A   symmetry.
    38 basis functions,   114 primitive gaussians,    38 cartesian basis functions
    23 alpha electrons       23 beta electrons
       nuclear repulsion energy       227.8229320902 Hartrees.
 IExCor=    0 DFT=F Ex=HF Corr=None ExCW=0 ScaHFX=  1.000000
 ScaDFX=  1.000000  1.000000  1.000000  1.000000 ScalE2=  1.000000  1.000000
 IRadAn=      5 IRanWt=     -1 IRanGd=            0 ICorTp=0 IEmpDi=  4
 NAtoms=   14 NActive=   14 NUniq=   14 SFac= 1.00D+00 NAtFMM=   60 NAOKFM=F Big=F
 Integral buffers will be    131072 words long.
 Raffenetti 1 integral format.
 Two-electron integral symmetry is turned on.
 Leave Link  301 at Sat Jul  6 20:30:24 2019, MaxMem=   536870912 cpu:               0.0 elap:               0.0
 (Enter /home/zxli/Documents/Softwares/g16/l402.exe)
 External calculation of energy and first derivatives.
 Running external command "python3 Gaudftb.py R"
         input file       "/scratch/zxli/gaussian/Gau-12906.EIn"
         output file      "/scratch/zxli/gaussian/Gau-12906.EOu"
         message file     "/scratch/zxli/gaussian/Gau-12906.EMs"
         fchk file        "/scratch/zxli/gaussian/Gau-12906.EFC"
         mat. el file     "/scratch/zxli/gaussian/Gau-12906.EUF"
 Recovered energy= -14.7748187694     dipole=      0.000000000000      0.000000000000      0.000000000000
 Energy=    -14.7748188     NIter=   0.
 Dipole moment=       0.000000       0.000000       0.000000
 Leave Link  402 at Sat Jul  6 20:30:24 2019, MaxMem=   536870912 cpu:               0.0 elap:               0.2
 (Enter /home/zxli/Documents/Softwares/g16/l716.exe)
 Dipole        = 0.00000000D+00 0.00000000D+00 0.00000000D+00
 ***** Axes restored to original set *****
 -------------------------------------------------------------------
 Center     Atomic                   Forces (Hartrees/Bohr)
 Number     Number              X              Y              Z
 -------------------------------------------------------------------
      1        6          -0.000019398    0.000881385    0.001900613
      2        8          -0.000384287   -0.000785276   -0.001654915
      3        6           0.001339726   -0.001323198    0.000948069
      4        6          -0.001352137    0.001121597   -0.000990455
      5        6           0.000236895    0.000111030    0.000032387
      6        6           0.000165847    0.000207425   -0.000335074
      7        1           0.000338510   -0.000106442   -0.000017088
      8        1           0.000039450   -0.000051009    0.000054432
      9        1           0.000251735   -0.000097109    0.000263136
     10        1          -0.000369252   -0.000032258   -0.000298906
     11        1          -0.000274587   -0.000060633    0.000016079
     12        1           0.000294652    0.000031393    0.000133962
     13        1          -0.000176586    0.000067094   -0.000041245
     14        1          -0.000090567    0.000036000   -0.000010995
 -------------------------------------------------------------------
 Cartesian Forces:  Max     0.001900613 RMS     0.000643482
 Leave Link  716 at Sat Jul  6 20:30:24 2019, MaxMem=   536870912 cpu:               0.0 elap:               0.0
 (Enter /home/zxli/Documents/Softwares/g16/l103.exe)

 GradGradGradGradGradGradGradGradGradGradGradGradGradGradGradGradGradGrad
 Berny optimization.
 FormGI is forming the generalized inverse of G from B-inverse, IUseBI=4.
 GSVD:  received Info=                   1 from GESDD.
 Internal  Forces:  Max     0.002948625 RMS     0.000670776
 Search for a saddle point.
 Step number   2 out of a maximum of   61
 All quantities printed in internal units (Hartrees-Bohrs-Radians)
 Swapping is turned off.
 Update second derivatives using D2CorX and points    1    2
 ITU=  0  0
     Eigenvalues ---   -0.08121   0.00648   0.01457   0.01685   0.02014
     Eigenvalues ---    0.02471   0.03096   0.03399   0.04169   0.04822
     Eigenvalues ---    0.06382   0.07039   0.08861   0.09015   0.09797
     Eigenvalues ---    0.10179   0.11168   0.12422   0.13591   0.14341
     Eigenvalues ---    0.18179   0.19571   0.27333   0.31501   0.31633
     Eigenvalues ---    0.31656   0.31757   0.32186   0.32345   0.32618
     Eigenvalues ---    0.33449   0.34853   0.49723   0.59736   0.65456
     Eigenvalues ---    0.95541
 Eigenvectors required to have negative eigenvalues:
                          R4        D4        D16       A4        R1
   1                   -0.66130  -0.26126   0.25332   0.22912   0.21681
                          A5        D18       R8        R2        R5
   1                    0.20575   0.19186  -0.17360  -0.16587   0.16502
 RFO step:  Lambda0=3.932452483D-05 Lambda=-1.27106203D-04.
 Linear search not attempted -- option 19 set.
 Iteration  1 RMS(Cart)=  0.01485707 RMS(Int)=  0.00016286
 Iteration  2 RMS(Cart)=  0.00040744 RMS(Int)=  0.00005292
 Iteration  3 RMS(Cart)=  0.00000010 RMS(Int)=  0.00005292
 ITry= 1 IFail=0 DXMaxC= 3.64D-02 DCOld= 1.00D+10 DXMaxT= 3.00D-01 DXLimC= 3.00D+00 Rises=F
 Variable       Old X    -DE/DX   Delta X   Delta X   Delta X     New X
                                 (Linear)    (Quad)   (Total)
    R1        2.44329   0.00180   0.00000   0.00038   0.00038   2.44366
    R2        2.61805  -0.00023   0.00000   0.00264   0.00264   2.62069
    R3        2.10856   0.00023   0.00000   0.00089   0.00089   2.10945
    R4        3.65661   0.00044   0.00000   0.00079   0.00079   3.65740
    R5        2.65751   0.00148   0.00000   0.00090   0.00090   2.65841
    R6        2.05239   0.00017   0.00000   0.00079   0.00079   2.05318
    R7        2.05528   0.00019   0.00000   0.00093   0.00093   2.05621
    R8        2.60633   0.00010   0.00000   0.00473   0.00473   2.61106
    R9        2.06177   0.00004   0.00000   0.00017   0.00017   2.06194
   R10        2.05149   0.00004   0.00000   0.00060   0.00060   2.05208
   R11        2.05164   0.00003   0.00000   0.00055   0.00055   2.05219
   R12        2.04977  -0.00000   0.00000   0.00022   0.00022   2.04999
   R13        2.04748   0.00002   0.00000   0.00036   0.00036   2.04784
    A1        2.15014   0.00085   0.00000   0.00199   0.00199   2.15213
    A2        2.04645  -0.00056   0.00000  -0.00296  -0.00296   2.04350
    A3        2.07193  -0.00022   0.00000   0.00023   0.00022   2.07215
    A4        1.97179   0.00295   0.00000   0.00425   0.00425   1.97604
    A5        1.79290   0.00193   0.00000   0.00124   0.00125   1.79415
    A6        1.69122  -0.00057   0.00000   0.00563   0.00563   1.69685
    A7        1.65140  -0.00044   0.00000   0.00599   0.00599   1.65740
    A8        2.08676  -0.00063   0.00000  -0.00163  -0.00165   2.08511
    A9        2.07731   0.00007   0.00000  -0.00244  -0.00247   2.07484
   A10        2.01542   0.00010   0.00000  -0.00202  -0.00205   2.01336
   A11        2.10471   0.00044   0.00000  -0.00429  -0.00438   2.10033
   A12        2.05429  -0.00024   0.00000  -0.00147  -0.00156   2.05273
   A13        2.06348  -0.00020   0.00000  -0.00213  -0.00222   2.06126
   A14        2.09300  -0.00001   0.00000  -0.00283  -0.00296   2.09004
   A15        2.09781  -0.00002   0.00000  -0.00335  -0.00347   2.09434
   A16        2.02173  -0.00005   0.00000  -0.00435  -0.00449   2.01724
   A17        2.09165  -0.00005   0.00000  -0.00409  -0.00423   2.08742
   A18        2.09127  -0.00004   0.00000  -0.00276  -0.00289   2.08837
   A19        2.03016  -0.00005   0.00000  -0.00390  -0.00405   2.02612
    D1        1.04715   0.00044   0.00000  -0.03945  -0.03945   1.00770
    D2       -1.90861   0.00009   0.00000  -0.03482  -0.03482  -1.94343
    D3       -3.13704  -0.00023   0.00000  -0.00035  -0.00033  -3.13737
    D4        0.41231   0.00016   0.00000   0.03037   0.03034   0.44265
    D5       -0.18384   0.00010   0.00000  -0.00537  -0.00534  -0.18918
    D6       -2.91767   0.00049   0.00000   0.02536   0.02533  -2.89235
    D7        0.23116   0.00065   0.00000   0.03166   0.03166   0.26282
    D8        2.36862   0.00033   0.00000   0.03222   0.03221   2.40083
    D9       -1.88322   0.00027   0.00000   0.03206   0.03207  -1.85115
   D10       -1.25396  -0.00024   0.00000   0.00142   0.00142  -1.25254
   D11        1.51401  -0.00030   0.00000  -0.02232  -0.02232   1.49170
   D12       -3.09783  -0.00056   0.00000  -0.00559  -0.00558  -3.10341
   D13       -0.32985  -0.00062   0.00000  -0.02933  -0.02932  -0.35917
   D14        0.53833   0.00044   0.00000   0.00849   0.00848   0.54681
   D15       -2.97688   0.00039   0.00000  -0.01525  -0.01525  -2.99213
   D16       -0.56463  -0.00019   0.00000  -0.03697  -0.03694  -0.60157
   D17        2.98817   0.00004   0.00000  -0.00676  -0.00678   2.98139
   D18        2.95250  -0.00012   0.00000  -0.01325  -0.01323   2.93927
   D19        0.22211   0.00011   0.00000   0.01697   0.01693   0.23905
         Item               Value     Threshold  Converged?
 Maximum Force            0.002949     0.000450     NO 
 RMS     Force            0.000671     0.000300     NO 
 Maximum Displacement     0.036363     0.001800     NO 
 RMS     Displacement     0.014734     0.001200     NO 
 Predicted change in Energy=-4.457475D-05
 GradGradGradGradGradGradGradGradGradGradGradGradGradGradGradGradGradGrad

 Leave Link  103 at Sat Jul  6 20:30:24 2019, MaxMem=   536870912 cpu:               0.0 elap:               0.0
 (Enter /home/zxli/Documents/Softwares/g16/l202.exe)
                          Input orientation:                          
 ---------------------------------------------------------------------
 Center     Atomic      Atomic             Coordinates (Angstroms)
 Number     Number       Type             X           Y           Z
 ---------------------------------------------------------------------
      1          6           0        1.332467   -0.261343    0.543957
      2          8           0        0.941204   -1.325766   -0.077415
      3          6           0       -0.744391   -1.094574   -0.999990
      4          6           0       -0.900130    0.303422   -1.018806
      5          6           0       -1.201863    0.987773    0.142981
      6          6           0        0.577229    0.371912    1.519580
      7          1           0        2.235209    0.258445    0.142785
      8          1           0        0.962708    1.264859    2.000064
      9          1           0       -0.153758   -0.195122    2.083914
     10          1           0       -0.472054   -1.614383   -1.914376
     11          1           0       -1.322864   -1.678236   -0.286779
     12          1           0       -0.423185    0.854534   -1.830819
     13          1           0       -1.839860    0.525627    0.890373
     14          1           0       -1.174447    2.073315    0.156367
 ---------------------------------------------------------------------
                    Distance matrix (angstroms):
                    1          2          3          4          5
     1  C    0.000000
     2  O    1.293131   0.000000
     3  C    2.718710   1.935413   0.000000
     4  C    2.783106   2.632676   1.406770   0.000000
     5  C    2.853752   3.161293   2.419057   1.381713   0.000000
     6  C    1.386808   2.359022   3.200859   2.937803   2.332269
     7  H    1.116272   2.057344   3.466210   3.343901   3.513600
     8  H    2.141556   3.320801   4.181081   3.675337   2.865467
     9  H    2.141195   2.673695   3.266240   3.229937   2.502995
    10  H    3.336228   2.335599   1.086494   2.159460   3.396550
    11  H    3.122257   2.300885   1.088100   2.154422   2.703135
    12  H    3.157064   3.112827   2.143006   1.091131   2.126025
    13  H    3.286789   3.478302   2.720033   2.139493   1.085916
    14  H    3.447531   4.010535   3.399652   2.142150   1.085971
                    6          7          8          9         10
     6  C    0.000000
     7  H    2.158087   0.000000
     8  H    1.084810   2.466093   0.000000
     9  H    1.083671   3.111410   1.839857   0.000000
    10  H    4.103465   3.881839   5.066697   4.254637   0.000000
    11  H    3.328122   4.073714   4.372104   3.030944   1.837669
    12  H    3.529721   3.364149   4.094475   4.061958   2.470814
    13  H    2.502368   4.151682   3.103589   2.187912   3.783801
    14  H    2.796693   3.862603   2.936026   3.146912   4.287243
                   11         12         13         14
    11  H    0.000000
    12  H    3.099743   0.000000
    13  H    2.551467   3.085455   0.000000
    14  H    3.780548   2.449231   1.837628   0.000000
 Stoichiometry    C5H8O
 Framework group  C1[X(C5H8O)]
 Deg. of freedom    36
 Full point group                 C1      NOp   1
 RotChk:  IX=0 Diff= 1.27D-02
 Largest Abelian subgroup         C1      NOp   1
 Largest concise Abelian subgroup C1      NOp   1
                         Standard orientation:                         
 ---------------------------------------------------------------------
 Center     Atomic      Atomic             Coordinates (Angstroms)
 Number     Number       Type             X           Y           Z
 ---------------------------------------------------------------------
      1          6           0       -1.355185   -0.299447    0.363446
      2          8           0       -0.712862   -1.325743   -0.090786
      3          6           0        1.181713   -1.001304   -0.316945
      4          6           0        1.385835    0.179374    0.420168
      5          6           0        0.908919    1.387561   -0.050966
      6          6           0       -1.367988    0.933246   -0.271803
      7          1           0       -1.763228   -0.373165    1.399848
      8          1           0       -1.924599    1.755476    0.165158
      9          1           0       -1.198499    0.987338   -1.340769
     10          1           0        1.531333   -1.948755    0.083770
     11          1           0        1.138133   -0.942158   -1.402562
     12          1           0        1.568792    0.081544    1.491393
     13          1           0        0.895398    1.581888   -1.119267
     14          1           0        0.935796    2.267196    0.585315
 ---------------------------------------------------------------------
 Rotational constants (GHZ):           4.7389279           3.7510321           2.4045605
 Leave Link  202 at Sat Jul  6 20:30:24 2019, MaxMem=   536870912 cpu:               0.0 elap:               0.0
 (Enter /home/zxli/Documents/Softwares/g16/l301.exe)
 Standard basis: STO-3G (5D, 7F)
 Ernie: Thresh=  0.10000D-02 Tol=  0.10000D-05 Strict=F.
 There are    38 symmetry adapted cartesian basis functions of A   symmetry.
 There are    38 symmetry adapted basis functions of A   symmetry.
    38 basis functions,   114 primitive gaussians,    38 cartesian basis functions
    23 alpha electrons       23 beta electrons
       nuclear repulsion energy       227.8038361135 Hartrees.
 IExCor=    0 DFT=F Ex=HF Corr=None ExCW=0 ScaHFX=  1.000000
 ScaDFX=  1.000000  1.000000  1.000000  1.000000 ScalE2=  1.000000  1.000000
 IRadAn=      5 IRanWt=     -1 IRanGd=            0 ICorTp=0 IEmpDi=  4
 NAtoms=   14 NActive=   14 NUniq=   14 SFac= 1.00D+00 NAtFMM=   60 NAOKFM=F Big=F
 Integral buffers will be    131072 words long.
 Raffenetti 1 integral format.
 Two-electron integral symmetry is turned on.
 Leave Link  301 at Sat Jul  6 20:30:24 2019, MaxMem=   536870912 cpu:               0.0 elap:               0.0
 (Enter /home/zxli/Documents/Softwares/g16/l402.exe)
 External calculation of energy and first derivatives.
 Running external command "python3 Gaudftb.py R"
         input file       "/scratch/zxli/gaussian/Gau-12906.EIn"
         output file      "/scratch/zxli/gaussian/Gau-12906.EOu"
         message file     "/scratch/zxli/gaussian/Gau-12906.EMs"
         fchk file        "/scratch/zxli/gaussian/Gau-12906.EFC"
         mat. el file     "/scratch/zxli/gaussian/Gau-12906.EUF"
 Recovered energy= -14.7748662928     dipole=      0.000000000000      0.000000000000      0.000000000000
 Energy=    -14.7748663     NIter=   0.
 Dipole moment=       0.000000       0.000000       0.000000
 Leave Link  402 at Sat Jul  6 20:30:25 2019, MaxMem=   536870912 cpu:               0.0 elap:               0.2
 (Enter /home/zxli/Documents/Softwares/g16/l716.exe)
 Dipole        = 0.00000000D+00 0.00000000D+00 0.00000000D+00
 ***** Axes restored to original set *****
 -------------------------------------------------------------------
 Center     Atomic                   Forces (Hartrees/Bohr)
 Number     Number              X              Y              Z
 -------------------------------------------------------------------
      1        6          -0.000232884   -0.000320834   -0.000217226
      2        8           0.000168059    0.000362467   -0.000065499
      3        6          -0.000306900   -0.000031161   -0.000001317
      4        6           0.000208448    0.000043117    0.000068987
      5        6           0.000083090   -0.000014894   -0.000071401
      6        6          -0.000207764    0.000087957    0.000020156
      7        1          -0.000029189   -0.000040307   -0.000003851
      8        1          -0.000002559    0.000021495   -0.000001422
      9        1          -0.000019927   -0.000003034    0.000014484
     10        1           0.000118593   -0.000049565    0.000080962
     11        1           0.000096533   -0.000044050    0.000038480
     12        1           0.000027929   -0.000004195   -0.000002634
     13        1           0.000066657   -0.000019790    0.000093024
     14        1           0.000029914    0.000012793    0.000047259
 -------------------------------------------------------------------
 Cartesian Forces:  Max     0.000362467 RMS     0.000122864
 Leave Link  716 at Sat Jul  6 20:30:25 2019, MaxMem=   536870912 cpu:               0.0 elap:               0.0
 (Enter /home/zxli/Documents/Softwares/g16/l103.exe)

 GradGradGradGradGradGradGradGradGradGradGradGradGradGradGradGradGradGrad
 Berny optimization.
 FormGI is forming the generalized inverse of G from B-inverse, IUseBI=4.
 Internal  Forces:  Max     0.001112365 RMS     0.000247762
 Search for a saddle point.
 Step number   3 out of a maximum of   61
 All quantities printed in internal units (Hartrees-Bohrs-Radians)
 Swapping is turned off.
 Update second derivatives using D2CorX and points    1    2    3
 ITU=  0  0  0
     Eigenvalues ---   -0.08201   0.00490   0.01503   0.01726   0.02015
     Eigenvalues ---    0.02470   0.03111   0.03411   0.04170   0.04821
     Eigenvalues ---    0.06383   0.07048   0.08860   0.09016   0.09795
     Eigenvalues ---    0.10178   0.11168   0.12416   0.13591   0.14340
     Eigenvalues ---    0.18172   0.19570   0.27322   0.31499   0.31632
     Eigenvalues ---    0.31656   0.31757   0.32186   0.32345   0.32618
     Eigenvalues ---    0.33454   0.34880   0.49716   0.59734   0.65454
     Eigenvalues ---    0.95519
 Eigenvectors required to have negative eigenvalues:
                          R4        D4        D16       A4        R1
   1                   -0.65036  -0.27226   0.26684   0.22712   0.21757
                          A5        D18       R8        R2        D15
   1                    0.20544   0.19498  -0.17463  -0.16687   0.16562
 RFO step:  Lambda0=2.499337883D-06 Lambda=-1.01398971D-05.
 Linear search not attempted -- option 19 set.
 Iteration  1 RMS(Cart)=  0.00624499 RMS(Int)=  0.00002192
 Iteration  2 RMS(Cart)=  0.00006768 RMS(Int)=  0.00000109
 Iteration  3 RMS(Cart)=  0.00000000 RMS(Int)=  0.00000109
 ITry= 1 IFail=0 DXMaxC= 1.77D-02 DCOld= 1.00D+10 DXMaxT= 3.00D-01 DXLimC= 3.00D+00 Rises=F
 Variable       Old X    -DE/DX   Delta X   Delta X   Delta X     New X
                                 (Linear)    (Quad)   (Total)
    R1        2.44366  -0.00045   0.00000  -0.00025  -0.00025   2.44341
    R2        2.62069   0.00020   0.00000  -0.00009  -0.00009   2.62060
    R3        2.10945  -0.00004   0.00000  -0.00017  -0.00017   2.10927
    R4        3.65740  -0.00042   0.00000  -0.00660  -0.00660   3.65080
    R5        2.65841  -0.00003   0.00000   0.00061   0.00061   2.65902
    R6        2.05318  -0.00001   0.00000  -0.00005  -0.00005   2.05313
    R7        2.05621  -0.00000   0.00000   0.00006   0.00006   2.05627
    R8        2.61106   0.00001   0.00000  -0.00032  -0.00032   2.61073
    R9        2.06194   0.00001   0.00000  -0.00001  -0.00001   2.06193
   R10        2.05208   0.00003   0.00000   0.00009   0.00009   2.05217
   R11        2.05219   0.00001   0.00000   0.00005   0.00005   2.05224
   R12        2.04999   0.00002   0.00000  -0.00001  -0.00001   2.04999
   R13        2.04784   0.00002   0.00000   0.00005   0.00005   2.04789
    A1        2.15213  -0.00014   0.00000   0.00125   0.00125   2.15338
    A2        2.04350   0.00004   0.00000  -0.00103  -0.00103   2.04246
    A3        2.07215   0.00008   0.00000  -0.00011  -0.00011   2.07204
    A4        1.97604  -0.00111   0.00000   0.00149   0.00149   1.97753
    A5        1.79415  -0.00090   0.00000  -0.00168  -0.00167   1.79248
    A6        1.69685   0.00034   0.00000  -0.00371  -0.00371   1.69314
    A7        1.65740   0.00015   0.00000   0.00242   0.00242   1.65982
    A8        2.08511   0.00013   0.00000   0.00126   0.00125   2.08636
    A9        2.07484   0.00018   0.00000   0.00058   0.00058   2.07542
   A10        2.01336  -0.00009   0.00000  -0.00037  -0.00037   2.01299
   A11        2.10033  -0.00015   0.00000  -0.00073  -0.00073   2.09960
   A12        2.05273   0.00007   0.00000  -0.00022  -0.00022   2.05251
   A13        2.06126   0.00003   0.00000   0.00023   0.00023   2.06149
   A14        2.09004   0.00005   0.00000   0.00069   0.00069   2.09073
   A15        2.09434   0.00004   0.00000   0.00060   0.00060   2.09493
   A16        2.01724  -0.00004   0.00000  -0.00036  -0.00036   2.01688
   A17        2.08742  -0.00000   0.00000  -0.00024  -0.00024   2.08718
   A18        2.08837   0.00001   0.00000   0.00046   0.00046   2.08884
   A19        2.02612  -0.00001   0.00000   0.00005   0.00005   2.02617
    D1        1.00770  -0.00021   0.00000  -0.00910  -0.00910   0.99860
    D2       -1.94343  -0.00010   0.00000  -0.00972  -0.00971  -1.95315
    D3       -3.13737   0.00007   0.00000   0.00001   0.00001  -3.13736
    D4        0.44265   0.00005   0.00000  -0.00071  -0.00071   0.44194
    D5       -0.18918  -0.00005   0.00000   0.00054   0.00054  -0.18864
    D6       -2.89235  -0.00006   0.00000  -0.00017  -0.00017  -2.89252
    D7        0.26282   0.00009   0.00000   0.01401   0.01401   0.27683
    D8        2.40083   0.00008   0.00000   0.01356   0.01356   2.41440
    D9       -1.85115   0.00008   0.00000   0.01303   0.01303  -1.83812
   D10       -1.25254   0.00022   0.00000  -0.00549  -0.00549  -1.25803
   D11        1.49170   0.00010   0.00000  -0.00743  -0.00743   1.48427
   D12       -3.10341   0.00034   0.00000  -0.00038  -0.00038  -3.10379
   D13       -0.35917   0.00022   0.00000  -0.00232  -0.00232  -0.36149
   D14        0.54681  -0.00009   0.00000  -0.00341  -0.00341   0.54340
   D15       -2.99213  -0.00021   0.00000  -0.00535  -0.00535  -2.99748
   D16       -0.60157   0.00004   0.00000  -0.00128  -0.00128  -0.60285
   D17        2.98139  -0.00010   0.00000  -0.00357  -0.00357   2.97782
   D18        2.93927   0.00015   0.00000   0.00078   0.00078   2.94004
   D19        0.23905   0.00001   0.00000  -0.00152  -0.00152   0.23752
         Item               Value     Threshold  Converged?
 Maximum Force            0.001112     0.000450     NO 
 RMS     Force            0.000248     0.000300     YES
 Maximum Displacement     0.017712     0.001800     NO 
 RMS     Displacement     0.006234     0.001200     NO 
 Predicted change in Energy=-3.819817D-06
 GradGradGradGradGradGradGradGradGradGradGradGradGradGradGradGradGradGrad

 Leave Link  103 at Sat Jul  6 20:30:25 2019, MaxMem=   536870912 cpu:               0.0 elap:               0.0
 (Enter /home/zxli/Documents/Softwares/g16/l202.exe)
                          Input orientation:                          
 ---------------------------------------------------------------------
 Center     Atomic      Atomic             Coordinates (Angstroms)
 Number     Number       Type             X           Y           Z
 ---------------------------------------------------------------------
      1          6           0        1.331893   -0.258690    0.541559
      2          8           0        0.944064   -1.320109   -0.086788
      3          6           0       -0.745095   -1.095136   -0.996984
      4          6           0       -0.900564    0.303158   -1.019503
      5          6           0       -1.200300    0.989898    0.141188
      6          6           0        0.574857    0.368253    1.519792
      7          1           0        2.234576    0.264262    0.144643
      8          1           0        0.958900    1.259054    2.005377
      9          1           0       -0.156587   -0.202236    2.080091
     10          1           0       -0.474667   -1.618796   -1.909709
     11          1           0       -1.319963   -1.676890   -0.279262
     12          1           0       -0.423105    0.851840   -1.832850
     13          1           0       -1.838061    0.530462    0.890518
     14          1           0       -1.169684    2.075392    0.153764
 ---------------------------------------------------------------------
                    Distance matrix (angstroms):
                    1          2          3          4          5
     1  C    0.000000
     2  O    1.292998   0.000000
     3  C    2.716732   1.931923   0.000000
     4  C    2.781448   2.628232   1.407091   0.000000
     5  C    2.851539   3.160127   2.418680   1.381541   0.000000
     6  C    1.386760   2.359658   3.196552   2.937537   2.331990
     7  H    1.116180   2.056506   3.468388   3.344525   3.510689
     8  H    2.141363   3.321063   4.178514   3.677123   2.865273
     9  H    2.141457   2.675152   3.257606   3.227445   2.503970
    10  H    3.335006   2.329174   1.086470   2.160500   3.396764
    11  H    3.117271   2.300034   1.088134   2.155096   2.702379
    12  H    3.154538   3.104069   2.143144   1.091125   2.126011
    13  H    3.285292   3.481373   2.720259   2.139801   1.085963
    14  H    3.443285   4.006897   3.399521   2.142380   1.085998
                    6          7          8          9         10
     6  C    0.000000
     7  H    2.157897   0.000000
     8  H    1.084807   2.465622   0.000000
     9  H    1.083698   3.111469   1.839907   0.000000
    10  H    4.100164   3.886678   5.066066   4.245741   0.000000
    11  H    3.318064   4.072163   4.362632   3.015724   1.837459
    12  H    3.531288   3.364371   4.099725   4.061184   2.472368
    13  H    2.498895   4.148924   3.097861   2.186158   3.784101
    14  H    2.797102   3.856068   2.936962   3.150347   4.288122
                   11         12         13         14
    11  H    0.000000
    12  H    3.100397   0.000000
    13  H    2.551315   3.085793   0.000000
    14  H    3.780173   2.449714   1.837483   0.000000
 Stoichiometry    C5H8O
 Framework group  C1[X(C5H8O)]
 Deg. of freedom    36
 Full point group                 C1      NOp   1
 RotChk:  IX=0 Diff= 2.72D-03
 Largest Abelian subgroup         C1      NOp   1
 Largest concise Abelian subgroup C1      NOp   1
                         Standard orientation:                         
 ---------------------------------------------------------------------
 Center     Atomic      Atomic             Coordinates (Angstroms)
 Number     Number       Type             X           Y           Z
 ---------------------------------------------------------------------
      1          6           0       -1.354124   -0.299292    0.363226
      2          8           0       -0.709177   -1.326567   -0.084648
      3          6           0        1.179899   -0.999000   -0.322171
      4          6           0        1.385340    0.178821    0.419743
      5          6           0        0.907546    1.388418   -0.046353
      6          6           0       -1.367631    0.931262   -0.276038
      7          1           0       -1.765254   -0.370419    1.398489
      8          1           0       -1.927069    1.753663    0.156964
      9          1           0       -1.194789    0.982779   -1.344623
     10          1           0        1.529838   -1.948732    0.072758
     11          1           0        1.131370   -0.935459   -1.407364
     12          1           0        1.568050    0.076349    1.490570
     13          1           0        0.893288    1.587701   -1.113779
     14          1           0        0.931795    2.265402    0.593728
 ---------------------------------------------------------------------
 Rotational constants (GHZ):           4.7395398           3.7565956           2.4081625
 Leave Link  202 at Sat Jul  6 20:30:25 2019, MaxMem=   536870912 cpu:               0.0 elap:               0.0
 (Enter /home/zxli/Documents/Softwares/g16/l301.exe)
 Standard basis: STO-3G (5D, 7F)
 Ernie: Thresh=  0.10000D-02 Tol=  0.10000D-05 Strict=F.
 There are    38 symmetry adapted cartesian basis functions of A   symmetry.
 There are    38 symmetry adapted basis functions of A   symmetry.
    38 basis functions,   114 primitive gaussians,    38 cartesian basis functions
    23 alpha electrons       23 beta electrons
       nuclear repulsion energy       227.8917246320 Hartrees.
 IExCor=    0 DFT=F Ex=HF Corr=None ExCW=0 ScaHFX=  1.000000
 ScaDFX=  1.000000  1.000000  1.000000  1.000000 ScalE2=  1.000000  1.000000
 IRadAn=      5 IRanWt=     -1 IRanGd=            0 ICorTp=0 IEmpDi=  4
 NAtoms=   14 NActive=   14 NUniq=   14 SFac= 1.00D+00 NAtFMM=   60 NAOKFM=F Big=F
 Integral buffers will be    131072 words long.
 Raffenetti 1 integral format.
 Two-electron integral symmetry is turned on.
 Leave Link  301 at Sat Jul  6 20:30:25 2019, MaxMem=   536870912 cpu:               0.0 elap:               0.0
 (Enter /home/zxli/Documents/Softwares/g16/l402.exe)
 External calculation of energy and first derivatives.
 Running external command "python3 Gaudftb.py R"
         input file       "/scratch/zxli/gaussian/Gau-12906.EIn"
         output file      "/scratch/zxli/gaussian/Gau-12906.EOu"
         message file     "/scratch/zxli/gaussian/Gau-12906.EMs"
         fchk file        "/scratch/zxli/gaussian/Gau-12906.EFC"
         mat. el file     "/scratch/zxli/gaussian/Gau-12906.EUF"
 Recovered energy= -14.7748704124     dipole=      0.000000000000      0.000000000000      0.000000000000
 Energy=    -14.7748704     NIter=   0.
 Dipole moment=       0.000000       0.000000       0.000000
 Leave Link  402 at Sat Jul  6 20:30:25 2019, MaxMem=   536870912 cpu:               0.0 elap:               0.2
 (Enter /home/zxli/Documents/Softwares/g16/l716.exe)
 Dipole        = 0.00000000D+00 0.00000000D+00 0.00000000D+00
 ***** Axes restored to original set *****
 -------------------------------------------------------------------
 Center     Atomic                   Forces (Hartrees/Bohr)
 Number     Number              X              Y              Z
 -------------------------------------------------------------------
      1        6          -0.000018018    0.000144329    0.000194264
      2        8          -0.000041025   -0.000092005   -0.000105461
      3        6           0.000109307   -0.000179334    0.000061967
      4        6           0.000023465    0.000161309    0.000071335
      5        6          -0.000065072    0.000007099   -0.000071206
      6        6           0.000120885   -0.000057079   -0.000024968
      7        1          -0.000028427   -0.000005398   -0.000007764
      8        1           0.000001425   -0.000006242   -0.000005068
      9        1          -0.000031028    0.000016534   -0.000038631
     10        1          -0.000064000    0.000027667   -0.000044883
     11        1          -0.000005932    0.000014613    0.000003822
     12        1          -0.000022220   -0.000010606   -0.000015611
     13        1           0.000017408   -0.000013764   -0.000004248
     14        1           0.000003232   -0.000007123   -0.000013549
 -------------------------------------------------------------------
 Cartesian Forces:  Max     0.000194264 RMS     0.000069017
 Leave Link  716 at Sat Jul  6 20:30:25 2019, MaxMem=   536870912 cpu:               0.0 elap:               0.0
 (Enter /home/zxli/Documents/Softwares/g16/l103.exe)

 GradGradGradGradGradGradGradGradGradGradGradGradGradGradGradGradGradGrad
 Berny optimization.
 FormGI is forming the generalized inverse of G from B-inverse, IUseBI=4.
 Internal  Forces:  Max     0.000154004 RMS     0.000053015
 Search for a saddle point.
 Step number   4 out of a maximum of   61
 All quantities printed in internal units (Hartrees-Bohrs-Radians)
 Swapping is turned off.
 Update second derivatives using D2CorX and points    1    2    3    4
 ITU=  0  0  0  0
     Eigenvalues ---   -0.08645   0.00416   0.01492   0.01707   0.02016
     Eigenvalues ---    0.02469   0.03132   0.03425   0.04176   0.04822
     Eigenvalues ---    0.06387   0.07049   0.08859   0.09026   0.09792
     Eigenvalues ---    0.10181   0.11177   0.12415   0.13596   0.14343
     Eigenvalues ---    0.18163   0.19568   0.27379   0.31503   0.31633
     Eigenvalues ---    0.31657   0.31758   0.32186   0.32346   0.32618
     Eigenvalues ---    0.33460   0.35025   0.49726   0.59728   0.65455
     Eigenvalues ---    0.95664
 Eigenvectors required to have negative eigenvalues:
                          R4        D4        D16       A4        R1
   1                   -0.65547  -0.26187   0.24981   0.23304   0.21932
                          A5        D18       R8        R2        R5
   1                    0.20604   0.18694  -0.17451  -0.16767   0.16617
 RFO step:  Lambda0=5.188378178D-07 Lambda=-7.52348231D-07.
 Linear search not attempted -- option 19 set.
 Iteration  1 RMS(Cart)=  0.00162478 RMS(Int)=  0.00000146
 Iteration  2 RMS(Cart)=  0.00000266 RMS(Int)=  0.00000013
 Iteration  3 RMS(Cart)=  0.00000000 RMS(Int)=  0.00000013
 ITry= 1 IFail=0 DXMaxC= 4.75D-03 DCOld= 1.00D+10 DXMaxT= 3.00D-01 DXLimC= 3.00D+00 Rises=F
 Variable       Old X    -DE/DX   Delta X   Delta X   Delta X     New X
                                 (Linear)    (Quad)   (Total)
    R1        2.44341   0.00015   0.00000  -0.00024  -0.00024   2.44317
    R2        2.62060  -0.00012   0.00000   0.00017   0.00017   2.62077
    R3        2.10927  -0.00002   0.00000  -0.00004  -0.00004   2.10924
    R4        3.65080   0.00001   0.00000   0.00238   0.00238   3.65318
    R5        2.65902   0.00014   0.00000  -0.00018  -0.00018   2.65884
    R6        2.05313   0.00001   0.00000   0.00001   0.00001   2.05314
    R7        2.05627  -0.00000   0.00000  -0.00004  -0.00004   2.05624
    R8        2.61073  -0.00007   0.00000   0.00029   0.00029   2.61103
    R9        2.06193  -0.00000   0.00000  -0.00003  -0.00003   2.06190
   R10        2.05217  -0.00001   0.00000  -0.00001  -0.00001   2.05216
   R11        2.05224  -0.00001   0.00000  -0.00000  -0.00000   2.05224
   R12        2.04999  -0.00001   0.00000  -0.00002  -0.00002   2.04997
   R13        2.04789  -0.00001   0.00000  -0.00002  -0.00002   2.04788
    A1        2.15338   0.00004   0.00000   0.00015   0.00015   2.15353
    A2        2.04246  -0.00002   0.00000  -0.00007  -0.00007   2.04239
    A3        2.07204  -0.00002   0.00000  -0.00020  -0.00020   2.07184
    A4        1.97753   0.00015   0.00000  -0.00033  -0.00033   1.97720
    A5        1.79248   0.00014   0.00000  -0.00068  -0.00068   1.79179
    A6        1.69314   0.00001   0.00000   0.00127   0.00127   1.69441
    A7        1.65982  -0.00005   0.00000  -0.00058  -0.00058   1.65924
    A8        2.08636  -0.00007   0.00000  -0.00032  -0.00032   2.08604
    A9        2.07542   0.00000   0.00000  -0.00002  -0.00002   2.07539
   A10        2.01299   0.00003   0.00000   0.00036   0.00036   2.01335
   A11        2.09960   0.00007   0.00000   0.00009   0.00009   2.09969
   A12        2.05251  -0.00004   0.00000   0.00002   0.00002   2.05253
   A13        2.06149  -0.00001   0.00000   0.00024   0.00024   2.06173
   A14        2.09073  -0.00001   0.00000  -0.00031  -0.00031   2.09042
   A15        2.09493  -0.00001   0.00000  -0.00032  -0.00032   2.09461
   A16        2.01688   0.00002   0.00000   0.00001   0.00001   2.01689
   A17        2.08718  -0.00000   0.00000  -0.00009  -0.00009   2.08709
   A18        2.08884   0.00001   0.00000  -0.00012  -0.00012   2.08872
   A19        2.02617   0.00001   0.00000   0.00004   0.00004   2.02621
    D1        0.99860  -0.00001   0.00000  -0.00266  -0.00266   0.99594
    D2       -1.95315  -0.00001   0.00000  -0.00186  -0.00186  -1.95501
    D3       -3.13736  -0.00000   0.00000  -0.00007  -0.00007  -3.13743
    D4        0.44194  -0.00005   0.00000   0.00034   0.00034   0.44228
    D5       -0.18864   0.00000   0.00000  -0.00087  -0.00087  -0.18951
    D6       -2.89252  -0.00004   0.00000  -0.00046  -0.00046  -2.89298
    D7        0.27683   0.00004   0.00000   0.00256   0.00256   0.27939
    D8        2.41440   0.00001   0.00000   0.00246   0.00246   2.41686
    D9       -1.83812   0.00003   0.00000   0.00293   0.00293  -1.83519
   D10       -1.25803  -0.00002   0.00000  -0.00065  -0.00065  -1.25869
   D11        1.48427   0.00002   0.00000   0.00035   0.00035   1.48462
   D12       -3.10379  -0.00009   0.00000  -0.00163  -0.00163  -3.10542
   D13       -0.36149  -0.00004   0.00000  -0.00063  -0.00063  -0.36212
   D14        0.54340   0.00001   0.00000  -0.00178  -0.00178   0.54162
   D15       -2.99748   0.00005   0.00000  -0.00078  -0.00078  -2.99826
   D16       -0.60285   0.00003   0.00000  -0.00132  -0.00132  -0.60417
   D17        2.97782   0.00002   0.00000   0.00026   0.00026   2.97808
   D18        2.94004  -0.00001   0.00000  -0.00228  -0.00228   2.93777
   D19        0.23752  -0.00002   0.00000  -0.00070  -0.00070   0.23683
         Item               Value     Threshold  Converged?
 Maximum Force            0.000154     0.000450     YES
 RMS     Force            0.000053     0.000300     YES
 Maximum Displacement     0.004750     0.001800     NO 
 RMS     Displacement     0.001625     0.001200     NO 
 Predicted change in Energy=-1.167564D-07
 GradGradGradGradGradGradGradGradGradGradGradGradGradGradGradGradGradGrad

 Leave Link  103 at Sat Jul  6 20:30:25 2019, MaxMem=   536870912 cpu:               0.0 elap:               0.0
 (Enter /home/zxli/Documents/Softwares/g16/l202.exe)
                          Input orientation:                          
 ---------------------------------------------------------------------
 Center     Atomic      Atomic             Coordinates (Angstroms)
 Number     Number       Type             X           Y           Z
 ---------------------------------------------------------------------
      1          6           0        1.332544   -0.258433    0.541685
      2          8           0        0.946055   -1.319481   -0.087848
      3          6           0       -0.745383   -1.095321   -0.996683
      4          6           0       -0.900379    0.302929   -1.019382
      5          6           0       -1.199207    0.990181    0.141425
      6          6           0        0.574020    0.367701    1.519413
      7          1           0        2.235067    0.265555    0.145828
      8          1           0        0.957269    1.258270    2.006022
      9          1           0       -0.157689   -0.203540    2.078580
     10          1           0       -0.477181   -1.619128   -1.909987
     11          1           0       -1.318759   -1.676548   -0.277371
     12          1           0       -0.424044    0.851200   -1.833646
     13          1           0       -1.837709    0.531404    0.890519
     14          1           0       -1.168339    2.075673    0.153280
 ---------------------------------------------------------------------
                    Distance matrix (angstroms):
                    1          2          3          4          5
     1  C    0.000000
     2  O    1.292868   0.000000
     3  C    2.717487   1.933181   0.000000
     4  C    2.781727   2.628553   1.406998   0.000000
     5  C    2.851142   3.160577   2.418793   1.381697   0.000000
     6  C    1.386851   2.359721   3.195621   2.936585   2.330379
     7  H    1.116161   2.056331   3.469927   3.345166   3.509891
     8  H    2.141379   3.321027   4.177877   3.676494   2.863387
     9  H    2.141461   2.675255   3.255441   3.225751   2.502459
    10  H    3.337259   2.331433   1.086477   2.160227   3.396779
    11  H    3.116297   2.300607   1.088114   2.154983   2.702059
    12  H    3.155803   3.104326   2.143061   1.091110   2.126288
    13  H    3.285732   3.483148   2.720467   2.139746   1.085957
    14  H    3.442866   4.006978   3.399487   2.142326   1.085996
                    6          7          8          9         10
     6  C    0.000000
     7  H    2.157835   0.000000
     8  H    1.084796   2.465477   0.000000
     9  H    1.083689   3.111409   1.839915   0.000000
    10  H    4.100403   3.890334   5.066774   4.244365   0.000000
    11  H    3.315116   4.071920   4.359741   3.011368   1.837657
    12  H    3.531701   3.366329   4.100828   4.060658   2.472079
    13  H    2.497747   4.148825   3.095898   2.184971   3.784001
    14  H    2.796302   3.854835   2.935815   3.150080   4.287929
                   11         12         13         14
    11  H    0.000000
    12  H    3.100325   0.000000
    13  H    2.551143   3.085741   0.000000
    14  H    3.779848   2.449732   1.837483   0.000000
 Stoichiometry    C5H8O
 Framework group  C1[X(C5H8O)]
 Deg. of freedom    36
 Full point group                 C1      NOp   1
 RotChk:  IX=0 Diff= 1.23D-03
 Largest Abelian subgroup         C1      NOp   1
 Largest concise Abelian subgroup C1      NOp   1
                         Standard orientation:                         
 ---------------------------------------------------------------------
 Center     Atomic      Atomic             Coordinates (Angstroms)
 Number     Number       Type             X           Y           Z
 ---------------------------------------------------------------------
      1          6           0       -1.354776   -0.298157    0.362971
      2          8           0       -0.710791   -1.326507   -0.083447
      3          6           0        1.179423   -0.999577   -0.323019
      4          6           0        1.385386    0.177558    0.419663
      5          6           0        0.907887    1.387841   -0.045412
      6          6           0       -1.365768    0.932226   -0.276867
      7          1           0       -1.766669   -0.367903    1.398004
      8          1           0       -1.924710    1.755492    0.155106
      9          1           0       -1.191785    0.982901   -1.345298
     10          1           0        1.530610   -1.949349    0.070723
     11          1           0        1.129028   -0.934970   -1.408044
     12          1           0        1.569228    0.074207    1.490196
     13          1           0        0.894752    1.588160   -1.112653
     14          1           0        0.932960    2.264168    0.595533
 ---------------------------------------------------------------------
 Rotational constants (GHZ):           4.7392467           3.7568398           2.4082995
 Leave Link  202 at Sat Jul  6 20:30:25 2019, MaxMem=   536870912 cpu:               0.0 elap:               0.0
 (Enter /home/zxli/Documents/Softwares/g16/l301.exe)
 Standard basis: STO-3G (5D, 7F)
 Ernie: Thresh=  0.10000D-02 Tol=  0.10000D-05 Strict=F.
 There are    38 symmetry adapted cartesian basis functions of A   symmetry.
 There are    38 symmetry adapted basis functions of A   symmetry.
    38 basis functions,   114 primitive gaussians,    38 cartesian basis functions
    23 alpha electrons       23 beta electrons
       nuclear repulsion energy       227.8899677607 Hartrees.
 IExCor=    0 DFT=F Ex=HF Corr=None ExCW=0 ScaHFX=  1.000000
 ScaDFX=  1.000000  1.000000  1.000000  1.000000 ScalE2=  1.000000  1.000000
 IRadAn=      5 IRanWt=     -1 IRanGd=            0 ICorTp=0 IEmpDi=  4
 NAtoms=   14 NActive=   14 NUniq=   14 SFac= 1.00D+00 NAtFMM=   60 NAOKFM=F Big=F
 Integral buffers will be    131072 words long.
 Raffenetti 1 integral format.
 Two-electron integral symmetry is turned on.
 Leave Link  301 at Sat Jul  6 20:30:25 2019, MaxMem=   536870912 cpu:               0.0 elap:               0.0
 (Enter /home/zxli/Documents/Softwares/g16/l402.exe)
 External calculation of energy and first derivatives.
 Running external command "python3 Gaudftb.py R"
         input file       "/scratch/zxli/gaussian/Gau-12906.EIn"
         output file      "/scratch/zxli/gaussian/Gau-12906.EOu"
         message file     "/scratch/zxli/gaussian/Gau-12906.EMs"
         fchk file        "/scratch/zxli/gaussian/Gau-12906.EFC"
         mat. el file     "/scratch/zxli/gaussian/Gau-12906.EUF"
 Recovered energy= -14.7748704609     dipole=      0.000000000000      0.000000000000      0.000000000000
 Energy=    -14.7748705     NIter=   0.
 Dipole moment=       0.000000       0.000000       0.000000
 Leave Link  402 at Sat Jul  6 20:30:25 2019, MaxMem=   536870912 cpu:               0.0 elap:               0.2
 (Enter /home/zxli/Documents/Softwares/g16/l716.exe)
 Dipole        = 0.00000000D+00 0.00000000D+00 0.00000000D+00
 ***** Axes restored to original set *****
 -------------------------------------------------------------------
 Center     Atomic                   Forces (Hartrees/Bohr)
 Number     Number              X              Y              Z
 -------------------------------------------------------------------
      1        6          -0.000000283    0.000000250   -0.000011763
      2        8          -0.000002162   -0.000007546    0.000000459
      3        6          -0.000022303    0.000038880   -0.000001966
      4        6          -0.000011323   -0.000024926   -0.000017303
      5        6           0.000010104   -0.000008071   -0.000001665
      6        6          -0.000009096    0.000006763    0.000007509
      7        1           0.000004328    0.000003827   -0.000001656
      8        1          -0.000000096    0.000000546    0.000000933
      9        1           0.000004939   -0.000004595    0.000003855
     10        1           0.000021152   -0.000005307    0.000014243
     11        1          -0.000003182   -0.000002121   -0.000005175
     12        1           0.000003092   -0.000000062    0.000002888
     13        1           0.000001500    0.000000857    0.000005160
     14        1           0.000003330    0.000001506    0.000004482
 -------------------------------------------------------------------
 Cartesian Forces:  Max     0.000038880 RMS     0.000010369
 Leave Link  716 at Sat Jul  6 20:30:25 2019, MaxMem=   536870912 cpu:               0.0 elap:               0.0
 (Enter /home/zxli/Documents/Softwares/g16/l103.exe)

 GradGradGradGradGradGradGradGradGradGradGradGradGradGradGradGradGradGrad
 Berny optimization.
 FormGI is forming the generalized inverse of G from B-inverse, IUseBI=4.
 GSVD:  received Info=                   1 from GESDD.
 Internal  Forces:  Max     0.000031140 RMS     0.000008868
 Search for a saddle point.
 Step number   5 out of a maximum of   61
 All quantities printed in internal units (Hartrees-Bohrs-Radians)
 Swapping is turned off.
 Update second derivatives using D2CorX and points    1    2    3    4    5
 ITU=  0  0  0  0  0
     Eigenvalues ---   -0.08758   0.00352   0.01437   0.01691   0.02017
     Eigenvalues ---    0.02470   0.03183   0.03535   0.04189   0.04827
     Eigenvalues ---    0.06467   0.07081   0.08861   0.09095   0.09788
     Eigenvalues ---    0.10181   0.11199   0.12416   0.13598   0.14339
     Eigenvalues ---    0.18162   0.19576   0.27364   0.31501   0.31633
     Eigenvalues ---    0.31657   0.31758   0.32186   0.32347   0.32618
     Eigenvalues ---    0.33464   0.35060   0.49736   0.59729   0.65475
     Eigenvalues ---    0.95676
 Eigenvectors required to have negative eigenvalues:
                          R4        D4        D16       A4        R1
   1                   -0.64643  -0.27201   0.26265   0.23243   0.21949
                          A5        D18       R8        R2        R5
   1                    0.20592   0.19201  -0.17540  -0.16861   0.16646
 RFO step:  Lambda0=2.509334240D-09 Lambda=-4.26272325D-08.
 Linear search not attempted -- option 19 set.
 Iteration  1 RMS(Cart)=  0.00025818 RMS(Int)=  0.00000005
 Iteration  2 RMS(Cart)=  0.00000007 RMS(Int)=  0.00000000
 ITry= 1 IFail=0 DXMaxC= 8.84D-04 DCOld= 1.00D+10 DXMaxT= 3.00D-01 DXLimC= 3.00D+00 Rises=F
 Variable       Old X    -DE/DX   Delta X   Delta X   Delta X     New X
                                 (Linear)    (Quad)   (Total)
    R1        2.44317   0.00000   0.00000   0.00004   0.00004   2.44321
    R2        2.62077   0.00001   0.00000  -0.00002  -0.00002   2.62074
    R3        2.10924   0.00001   0.00000   0.00001   0.00001   2.10925
    R4        3.65318  -0.00000   0.00000  -0.00014  -0.00014   3.65304
    R5        2.65884  -0.00003   0.00000  -0.00001  -0.00001   2.65883
    R6        2.05314  -0.00000   0.00000  -0.00001  -0.00001   2.05313
    R7        2.05624  -0.00000   0.00000  -0.00000  -0.00000   2.05624
    R8        2.61103   0.00000   0.00000  -0.00002  -0.00002   2.61101
    R9        2.06190  -0.00000   0.00000  -0.00000  -0.00000   2.06190
   R10        2.05216   0.00000   0.00000   0.00000   0.00000   2.05217
   R11        2.05224   0.00000   0.00000   0.00000   0.00000   2.05224
   R12        2.04997   0.00000   0.00000   0.00000   0.00000   2.04997
   R13        2.04788   0.00000   0.00000   0.00000   0.00000   2.04788
    A1        2.15353  -0.00000   0.00000  -0.00003  -0.00003   2.15350
    A2        2.04239   0.00000   0.00000   0.00002   0.00002   2.04241
    A3        2.07184   0.00000   0.00000   0.00002   0.00002   2.07185
    A4        1.97720  -0.00001   0.00000  -0.00001  -0.00001   1.97719
    A5        1.79179  -0.00001   0.00000   0.00008   0.00008   1.79187
    A6        1.69441  -0.00001   0.00000  -0.00036  -0.00036   1.69405
    A7        1.65924   0.00001   0.00000   0.00009   0.00009   1.65933
    A8        2.08604   0.00001   0.00000   0.00009   0.00009   2.08613
    A9        2.07539   0.00000   0.00000   0.00003   0.00003   2.07542
   A10        2.01335  -0.00000   0.00000  -0.00003  -0.00003   2.01332
   A11        2.09969  -0.00002   0.00000  -0.00006  -0.00006   2.09962
   A12        2.05253   0.00001   0.00000   0.00001   0.00001   2.05254
   A13        2.06173   0.00001   0.00000  -0.00002  -0.00002   2.06170
   A14        2.09042   0.00000   0.00000   0.00005   0.00005   2.09047
   A15        2.09461   0.00000   0.00000   0.00006   0.00006   2.09467
   A16        2.01689  -0.00000   0.00000   0.00000   0.00000   2.01690
   A17        2.08709   0.00000   0.00000   0.00003   0.00003   2.08711
   A18        2.08872  -0.00001   0.00000  -0.00002  -0.00002   2.08870
   A19        2.02621   0.00000   0.00000   0.00001   0.00001   2.02622
    D1        0.99594   0.00002   0.00000   0.00049   0.00049   0.99644
    D2       -1.95501   0.00001   0.00000   0.00046   0.00046  -1.95456
    D3       -3.13743  -0.00000   0.00000  -0.00002  -0.00002  -3.13745
    D4        0.44228   0.00000   0.00000  -0.00006  -0.00006   0.44223
    D5       -0.18951   0.00000   0.00000   0.00002   0.00002  -0.18949
    D6       -2.89298   0.00001   0.00000  -0.00002  -0.00002  -2.89299
    D7        0.27939   0.00000   0.00000  -0.00037  -0.00037   0.27902
    D8        2.41686   0.00001   0.00000  -0.00038  -0.00038   2.41649
    D9       -1.83519   0.00000   0.00000  -0.00045  -0.00045  -1.83563
   D10       -1.25869   0.00000   0.00000   0.00019   0.00019  -1.25850
   D11        1.48462  -0.00001   0.00000  -0.00002  -0.00002   1.48459
   D12       -3.10542   0.00002   0.00000   0.00054   0.00054  -3.10488
   D13       -0.36212   0.00001   0.00000   0.00033   0.00033  -0.36180
   D14        0.54162   0.00001   0.00000   0.00035   0.00035   0.54198
   D15       -2.99826  -0.00000   0.00000   0.00014   0.00014  -2.99812
   D16       -0.60417  -0.00000   0.00000   0.00014   0.00014  -0.60403
   D17        2.97808  -0.00001   0.00000  -0.00012  -0.00012   2.97795
   D18        2.93777   0.00001   0.00000   0.00035   0.00035   2.93812
   D19        0.23683   0.00000   0.00000   0.00008   0.00008   0.23691
         Item               Value     Threshold  Converged?
 Maximum Force            0.000031     0.000450     YES
 RMS     Force            0.000009     0.000300     YES
 Maximum Displacement     0.000884     0.001800     YES
 RMS     Displacement     0.000258     0.001200     YES
 Predicted change in Energy=-2.005895D-08
 Optimization completed.
    -- Stationary point found.
                           ----------------------------
                           !   Optimized Parameters   !
                           ! (Angstroms and Degrees)  !
 --------------------------                            --------------------------
 ! Name  Definition              Value          Derivative Info.                !
 --------------------------------------------------------------------------------
 ! R1    R(1,2)                  1.2929         -DE/DX =    0.0                 !
 ! R2    R(1,6)                  1.3869         -DE/DX =    0.0                 !
 ! R3    R(1,7)                  1.1162         -DE/DX =    0.0                 !
 ! R4    R(2,3)                  1.9332         -DE/DX =    0.0                 !
 ! R5    R(3,4)                  1.407          -DE/DX =    0.0                 !
 ! R6    R(3,10)                 1.0865         -DE/DX =    0.0                 !
 ! R7    R(3,11)                 1.0881         -DE/DX =    0.0                 !
 ! R8    R(4,5)                  1.3817         -DE/DX =    0.0                 !
 ! R9    R(4,12)                 1.0911         -DE/DX =    0.0                 !
 ! R10   R(5,13)                 1.086          -DE/DX =    0.0                 !
 ! R11   R(5,14)                 1.086          -DE/DX =    0.0                 !
 ! R12   R(6,8)                  1.0848         -DE/DX =    0.0                 !
 ! R13   R(6,9)                  1.0837         -DE/DX =    0.0                 !
 ! A1    A(2,1,6)              123.3881         -DE/DX =    0.0                 !
 ! A2    A(2,1,7)              117.0203         -DE/DX =    0.0                 !
 ! A3    A(6,1,7)              118.7075         -DE/DX =    0.0                 !
 ! A4    A(1,2,3)              113.2854         -DE/DX =    0.0                 !
 ! A5    A(2,3,4)              102.6622         -DE/DX =    0.0                 !
 ! A6    A(2,3,10)              97.0827         -DE/DX =    0.0                 !
 ! A7    A(2,3,11)              95.0676         -DE/DX =    0.0                 !
 ! A8    A(4,3,10)             119.5215         -DE/DX =    0.0                 !
 ! A9    A(4,3,11)             118.9113         -DE/DX =    0.0                 !
 ! A10   A(10,3,11)            115.3564         -DE/DX =    0.0                 !
 ! A11   A(3,4,5)              120.3031         -DE/DX =    0.0                 !
 ! A12   A(3,4,12)             117.6011         -DE/DX =    0.0                 !
 ! A13   A(5,4,12)             118.1283         -DE/DX =    0.0                 !
 ! A14   A(4,5,13)             119.7723         -DE/DX =    0.0                 !
 ! A15   A(4,5,14)             120.0126         -DE/DX =    0.0                 !
 ! A16   A(13,5,14)            115.5595         -DE/DX =    0.0                 !
 ! A17   A(1,6,8)              119.5812         -DE/DX =    0.0                 !
 ! A18   A(1,6,9)              119.6748         -DE/DX =    0.0                 !
 ! A19   A(8,6,9)              116.0933         -DE/DX =    0.0                 !
 ! D1    D(6,1,2,3)             57.0632         -DE/DX =    0.0                 !
 ! D2    D(7,1,2,3)           -112.014          -DE/DX =    0.0                 !
 ! D3    D(2,1,6,8)           -179.7617         -DE/DX =    0.0                 !
 ! D4    D(2,1,6,9)             25.341          -DE/DX =    0.0                 !
 ! D5    D(7,1,6,8)            -10.858          -DE/DX =    0.0                 !
 ! D6    D(7,1,6,9)           -165.7553         -DE/DX =    0.0                 !
 ! D7    D(1,2,3,4)             16.0078         -DE/DX =    0.0                 !
 ! D8    D(1,2,3,10)           138.476          -DE/DX =    0.0                 !
 ! D9    D(1,2,3,11)          -105.1485         -DE/DX =    0.0                 !
 ! D10   D(2,3,4,5)            -72.1174         -DE/DX =    0.0                 !
 ! D11   D(2,3,4,12)            85.0623         -DE/DX =    0.0                 !
 ! D12   D(10,3,4,5)          -177.9277         -DE/DX =    0.0                 !
 ! D13   D(10,3,4,12)          -20.748          -DE/DX =    0.0                 !
 ! D14   D(11,3,4,5)            31.0327         -DE/DX =    0.0                 !
 ! D15   D(11,3,4,12)         -171.7876         -DE/DX =    0.0                 !
 ! D16   D(3,4,5,13)           -34.6164         -DE/DX =    0.0                 !
 ! D17   D(3,4,5,14)           170.6311         -DE/DX =    0.0                 !
 ! D18   D(12,4,5,13)          168.3216         -DE/DX =    0.0                 !
 ! D19   D(12,4,5,14)           13.5691         -DE/DX =    0.0                 !
 --------------------------------------------------------------------------------
 Largest change from initial coordinates is atom    8       0.128 Angstoms.
 GradGradGradGradGradGradGradGradGradGradGradGradGradGradGradGradGradGrad

 Leave Link  103 at Sat Jul  6 20:30:25 2019, MaxMem=   536870912 cpu:               0.0 elap:               0.0
 (Enter /home/zxli/Documents/Softwares/g16/l202.exe)
                          Input orientation:                          
 ---------------------------------------------------------------------
 Center     Atomic      Atomic             Coordinates (Angstroms)
 Number     Number       Type             X           Y           Z
 ---------------------------------------------------------------------
      1          6           0        1.332544   -0.258433    0.541685
      2          8           0        0.946055   -1.319481   -0.087848
      3          6           0       -0.745383   -1.095321   -0.996683
      4          6           0       -0.900379    0.302929   -1.019382
      5          6           0       -1.199207    0.990181    0.141425
      6          6           0        0.574020    0.367701    1.519413
      7          1           0        2.235067    0.265555    0.145828
      8          1           0        0.957269    1.258270    2.006022
      9          1           0       -0.157689   -0.203540    2.078580
     10          1           0       -0.477181   -1.619128   -1.909987
     11          1           0       -1.318759   -1.676548   -0.277371
     12          1           0       -0.424044    0.851200   -1.833646
     13          1           0       -1.837709    0.531404    0.890519
     14          1           0       -1.168339    2.075673    0.153280
 ---------------------------------------------------------------------
                    Distance matrix (angstroms):
                    1          2          3          4          5
     1  C    0.000000
     2  O    1.292868   0.000000
     3  C    2.717487   1.933181   0.000000
     4  C    2.781727   2.628553   1.406998   0.000000
     5  C    2.851142   3.160577   2.418793   1.381697   0.000000
     6  C    1.386851   2.359721   3.195621   2.936585   2.330379
     7  H    1.116161   2.056331   3.469927   3.345166   3.509891
     8  H    2.141379   3.321027   4.177877   3.676494   2.863387
     9  H    2.141461   2.675255   3.255441   3.225751   2.502459
    10  H    3.337259   2.331433   1.086477   2.160227   3.396779
    11  H    3.116297   2.300607   1.088114   2.154983   2.702059
    12  H    3.155803   3.104326   2.143061   1.091110   2.126288
    13  H    3.285732   3.483148   2.720467   2.139746   1.085957
    14  H    3.442866   4.006978   3.399487   2.142326   1.085996
                    6          7          8          9         10
     6  C    0.000000
     7  H    2.157835   0.000000
     8  H    1.084796   2.465477   0.000000
     9  H    1.083689   3.111409   1.839915   0.000000
    10  H    4.100403   3.890334   5.066774   4.244365   0.000000
    11  H    3.315116   4.071920   4.359741   3.011368   1.837657
    12  H    3.531701   3.366329   4.100828   4.060658   2.472079
    13  H    2.497747   4.148825   3.095898   2.184971   3.784001
    14  H    2.796302   3.854835   2.935815   3.150080   4.287929
                   11         12         13         14
    11  H    0.000000
    12  H    3.100325   0.000000
    13  H    2.551143   3.085741   0.000000
    14  H    3.779848   2.449732   1.837483   0.000000
 Stoichiometry    C5H8O
 Framework group  C1[X(C5H8O)]
 Deg. of freedom    36
 Full point group                 C1      NOp   1
 RotChk:  IX=0 Diff= 9.74D-16
 Largest Abelian subgroup         C1      NOp   1
 Largest concise Abelian subgroup C1      NOp   1
                         Standard orientation:                         
 ---------------------------------------------------------------------
 Center     Atomic      Atomic             Coordinates (Angstroms)
 Number     Number       Type             X           Y           Z
 ---------------------------------------------------------------------
      1          6           0       -1.354776   -0.298157    0.362971
      2          8           0       -0.710791   -1.326507   -0.083447
      3          6           0        1.179423   -0.999577   -0.323019
      4          6           0        1.385386    0.177558    0.419663
      5          6           0        0.907887    1.387841   -0.045412
      6          6           0       -1.365768    0.932226   -0.276867
      7          1           0       -1.766669   -0.367903    1.398004
      8          1           0       -1.924710    1.755492    0.155106
      9          1           0       -1.191785    0.982901   -1.345298
     10          1           0        1.530610   -1.949349    0.070723
     11          1           0        1.129028   -0.934970   -1.408044
     12          1           0        1.569228    0.074207    1.490196
     13          1           0        0.894752    1.588160   -1.112653
     14          1           0        0.932960    2.264168    0.595533
 ---------------------------------------------------------------------
 Rotational constants (GHZ):           4.7392467           3.7568398           2.4082995
 Leave Link  202 at Sat Jul  6 20:30:25 2019, MaxMem=   536870912 cpu:               0.0 elap:               0.0
 (Enter /home/zxli/Documents/Softwares/g16/l601.exe)
 Leave Link  601 at Sat Jul  6 20:30:25 2019, MaxMem=   536870912 cpu:               0.0 elap:               0.0
 (Enter /home/zxli/Documents/Softwares/g16/l9999.exe)
 1\1\GINC-LZX-OPTIPLEX-7040\FTS\RExternal='python3 Gaudftb.py'\ZDO\C5H8
 O1\ZXLI\06-Jul-2019\0\\#p opt=(nomicro,ts,calcfc,noeigen) external='py
 thon3 Gaudftb.py'\\ts\\0,1\C,1.3325441559,-0.2584333804,0.5416852521\O
 ,0.9460545804,-1.3194809279,-0.0878484659\C,-0.7453829144,-1.095320854
 2,-0.9966827126\C,-0.9003792953,0.302929488,-1.0193823528\C,-1.1992068
 551,0.9901805145,0.1414249129\C,0.5740195855,0.3677005946,1.5194134995
 \H,2.2350668986,0.265554944,0.1458276678\H,0.9572690867,1.2582701481,2
 .0060223407\H,-0.1576894598,-0.2035403344,2.0785803103\H,-0.4771811015
 ,-1.6191284309,-1.9099874068\H,-1.3187585618,-1.6765476354,-0.27737130
 11\H,-0.4240444711,0.8512000461,-1.833646483\H,-1.8377089866,0.5314044
 232,0.8905193581\H,-1.1683386614,2.0756734046,0.1532803807\\Version=ES
 64L-G16RevA.03\HF=-14.7748705\RMSD=0.000e+00\RMSF=1.037e-05\Dipole=0.,
 0.,0.\PG=C01 [X(C5H8O1)]\\@


 The chemist is a guest at the physicist's table and
 frequently dines well.
                   -- Richard Bersohn
 Job cpu time:       0 days  0 hours  0 minutes  0.8 seconds.
 Elapsed time:       0 days  0 hours  0 minutes  2.2 seconds.
 File lengths (MBytes):  RWF=      6 Int=      0 D2E=      0 Chk=      1 Scr=      1
 Normal termination of Gaussian 16 at Sat Jul  6 20:30:25 2019.
