    5
Geometry Step: 12
    C      1.15052127     -0.62221080      0.16251901
    H      1.73820893     -1.53015011      0.16714209
    H      1.58498401      0.09234638      0.84846175
    H      1.14052193     -0.20439732     -0.83501799
    H      0.13800388     -0.84687218      0.46929498
